 Entering Gaussian System, Link 0=g03
 Input=acetyl_O2_adduct.gjf
 Output=acetyl_O2_adduct.log
 Initial command:
 /usr/local/g03/l1.exe /work/Gau-3394.inp -scrdir=/work/
 Entering Link 1 = /usr/local/g03/l1.exe PID=      3395.
  
 Copyright (c) 1988,1990,1992,1993,1995,1998,2003, Gaussian, Inc.
                  All Rights Reserved.
  
 This is the Gaussian(R) 03 program.  It is based on the
 the Gaussian(R) 98 system (copyright 1998, Gaussian, Inc.),
 the Gaussian(R) 94 system (copyright 1995, Gaussian, Inc.),
 the Gaussian 92(TM) system (copyright 1992, Gaussian, Inc.),
 the Gaussian 90(TM) system (copyright 1990, Gaussian, Inc.),
 the Gaussian 88(TM) system (copyright 1988, Gaussian, Inc.),
 the Gaussian 86(TM) system (copyright 1986, Carnegie Mellon
 University), and the Gaussian 82(TM) system (copyright 1983,
 Carnegie Mellon University). Gaussian is a federally registered
 trademark of Gaussian, Inc.
  
 This software contains proprietary and confidential information,
 including trade secrets, belonging to Gaussian, Inc.
  
 This software is provided under written license and may be
 used, copied, transmitted, or stored only in accord with that
 written license.
  
 The following legend is applicable only to US Government
 contracts under DFARS:
  
                    RESTRICTED RIGHTS LEGEND
  
 Use, duplication or disclosure by the US Government is subject
 to restrictions as set forth in subparagraph (c)(1)(ii) of the
 Rights in Technical Data and Computer Software clause at DFARS
 252.227-7013.
  
 Gaussian, Inc.
 Carnegie Office Park, Building 6, Pittsburgh, PA 15106 USA
  
 The following legend is applicable only to US Government
 contracts under FAR:
  
                    RESTRICTED RIGHTS LEGEND
  
 Use, reproduction and disclosure by the US Government is subject
 to restrictions as set forth in subparagraph (c) of the
 Commercial Computer Software - Restricted Rights clause at FAR
 52.227-19.
  
 Gaussian, Inc.
 Carnegie Office Park, Building 6, Pittsburgh, PA 15106 USA
  
  
 ---------------------------------------------------------------
 Warning -- This program may not be used in any manner that
 competes with the business of Gaussian, Inc. or will provide
 assistance to any competitor of Gaussian, Inc.  The licensee
 of this program is prohibited from giving any competitor of
 Gaussian, Inc. access to this program.  By using this program,
 the user acknowledges that Gaussian, Inc. is engaged in the
 business of creating and licensing software in the field of
 computational chemistry and represents and warrants to the
 licensee that it is not a competitor of Gaussian, Inc. and that
 it will not use this program in any manner prohibited above.
 ---------------------------------------------------------------
  

 Cite this work as:
 Gaussian 03, Revision B.05,
 M. J. Frisch, G. W. Trucks, H. B. Schlegel, G. E. Scuseria, 
 M. A. Robb, J. R. Cheeseman, J. A. Montgomery, Jr., T. Vreven, 
 K. N. Kudin, J. C. Burant, J. M. Millam, S. S. Iyengar, J. Tomasi, 
 V. Barone, B. Mennucci, M. Cossi, G. Scalmani, N. Rega, 
 G. A. Petersson, H. Nakatsuji, M. Hada, M. Ehara, K. Toyota, 
 R. Fukuda, J. Hasegawa, M. Ishida, T. Nakajima, Y. Honda, O. Kitao, 
 H. Nakai, M. Klene, X. Li, J. E. Knox, H. P. Hratchian, J. B. Cross, 
 C. Adamo, J. Jaramillo, R. Gomperts, R. E. Stratmann, O. Yazyev, 
 A. J. Austin, R. Cammi, C. Pomelli, J. W. Ochterski, P. Y. Ayala, 
 K. Morokuma, G. A. Voth, P. Salvador, J. J. Dannenberg, 
 V. G. Zakrzewski, S. Dapprich, A. D. Daniels, M. C. Strain, 
 O. Farkas, D. K. Malick, A. D. Rabuck, K. Raghavachari, 
 J. B. Foresman, J. V. Ortiz, Q. Cui, A. G. Baboul, S. Clifford, 
 J. Cioslowski, B. B. Stefanov, G. Liu, A. Liashenko, P. Piskorz, 
 I. Komaromi, R. L. Martin, D. J. Fox, T. Keith, M. A. Al-Laham, 
 C. Y. Peng, A. Nanayakkara, M. Challacombe, P. M. W. Gill, 
 B. Johnson, W. Chen, M. W. Wong, C. Gonzalez, and J. A. Pople, 
 Gaussian, Inc., Pittsburgh PA, 2003.
 
 **********************************************
 Gaussian 03:  x86-Linux-G03RevB.05 24-Oct-2003
                  20-Oct-2005 
 **********************************************
 %chk=acetyl_O2_adduct
 %mem=900MB
 ----------------------------------------------------------
 # opt freq b3lyp/6-311+g(3df,2p) scf=(tight,maxcycle=1000)
 ----------------------------------------------------------
 1/14=-1,18=20,26=3,38=1/1,3;
 2/9=110,17=6,18=5,40=1/2;
 3/5=4,6=6,7=216,11=2,16=1,25=1,30=1,74=-5/1,2,3;
 4//1;
 5/5=2,7=1000,32=2,38=5/2;
 6/7=2,8=2,9=2,10=2,28=1/1;
 7//1,2,3,16;
 1/14=-1,18=20/3(1);
 99//99;
 2/9=110/2;
 3/5=4,6=6,7=216,11=2,16=1,25=1,30=1,74=-5/1,2,3;
 4/5=5,16=3/1;
 5/5=2,7=1000,32=2,38=5/2;
 7//1,2,3,16;
 1/14=-1,18=20/3(-5);
 2/9=110/2;
 6/7=2,8=2,9=2,10=2,19=2,28=1/1;
 99/9=1/99;
 --------------------------------------------------------------
 acetyl radical, O2 adduct, not constrained to have Cs symmetry
 --------------------------------------------------------------
 Symbolic Z-matrix:
 Charge =  0 Multiplicity = 2
 C                     1.00418  -1.5058   -0.01658 
 O                     2.24755  -1.4754   -0.20809 
 C                     0.19149  -0.19773  -0.02563 
 H                     0.29481   0.27978  -0.97758 
 H                    -0.84032  -0.41764   0.15297 
 H                     0.55533   0.45353   0.74143 
 O                     0.34589  -2.75499   0.20944 
 O                    -0.94884  -2.54866   0.36273 
 

 GradGradGradGradGradGradGradGradGradGradGradGradGradGradGradGradGradGrad
 Berny optimization.
 Initialization pass.
                           ----------------------------
                           !    Initial Parameters    !
                           ! (Angstroms and Degrees)  !
 --------------------------                            --------------------------
 ! Name  Definition              Value          Derivative Info.                !
 --------------------------------------------------------------------------------
 ! R1    R(1,2)                  1.2584         estimate D2E/DX2                !
 ! R2    R(1,3)                  1.54           estimate D2E/DX2                !
 ! R3    R(1,7)                  1.43           estimate D2E/DX2                !
 ! R4    R(3,4)                  1.07           estimate D2E/DX2                !
 ! R5    R(3,5)                  1.07           estimate D2E/DX2                !
 ! R6    R(3,6)                  1.07           estimate D2E/DX2                !
 ! R7    R(7,8)                  1.32           estimate D2E/DX2                !
 ! A1    A(2,1,3)              120.0            estimate D2E/DX2                !
 ! A2    A(2,1,7)              120.0            estimate D2E/DX2                !
 ! A3    A(3,1,7)              120.0            estimate D2E/DX2                !
 ! A4    A(1,3,4)              109.4712         estimate D2E/DX2                !
 ! A5    A(1,3,5)              109.4712         estimate D2E/DX2                !
 ! A6    A(1,3,6)              109.4712         estimate D2E/DX2                !
 ! A7    A(4,3,5)              109.4712         estimate D2E/DX2                !
 ! A8    A(4,3,6)              109.4712         estimate D2E/DX2                !
 ! A9    A(5,3,6)              109.4712         estimate D2E/DX2                !
 ! A10   A(1,7,8)              109.4712         estimate D2E/DX2                !
 ! D1    D(2,1,3,4)             60.0            estimate D2E/DX2                !
 ! D2    D(2,1,3,5)            180.0            estimate D2E/DX2                !
 ! D3    D(2,1,3,6)            -60.0            estimate D2E/DX2                !
 ! D4    D(7,1,3,4)           -120.0            estimate D2E/DX2                !
 ! D5    D(7,1,3,5)              0.0            estimate D2E/DX2                !
 ! D6    D(7,1,3,6)            120.0            estimate D2E/DX2                !
 ! D7    D(2,1,7,8)           -179.0            estimate D2E/DX2                !
 ! D8    D(3,1,7,8)              1.0            estimate D2E/DX2                !
 --------------------------------------------------------------------------------
 Trust Radius=3.00D-01 FncErr=1.00D-07 GrdErr=1.00D-06
 Number of steps in this run=  35 maximum allowed number of steps= 100.
 GradGradGradGradGradGradGradGradGradGradGradGradGradGradGradGradGradGrad

                          Input orientation:                          
 ---------------------------------------------------------------------
 Center     Atomic     Atomic              Coordinates (Angstroms)
 Number     Number      Type              X           Y           Z
 ---------------------------------------------------------------------
    1          6             0        1.004176   -1.505804   -0.016583
    2          8             0        2.247547   -1.475403   -0.208092
    3          6             0        0.191492   -0.197728   -0.025629
    4          1             0        0.294810    0.279782   -0.977579
    5          1             0       -0.840323   -0.417637    0.152972
    6          1             0        0.555332    0.453528    0.741434
    7          8             0        0.345890   -2.754993    0.209441
    8          8             0       -0.948841   -2.548659    0.362730
 ---------------------------------------------------------------------
                    Distance matrix (angstroms):
                    1          2          3          4          5
     1  C    0.000000
     2  O    1.258400   0.000000
     3  C    1.540000   2.427572   0.000000
     4  H    2.148263   2.736049   1.070000   0.000000
     5  H    2.148263   3.283927   1.070000   1.747303   0.000000
     6  H    2.148263   2.736049   1.070000   1.747303   1.747303
     7  O    1.430000   2.329803   2.572683   3.259062   2.621741
     8  O    2.246264   3.419738   2.641601   3.367963   2.144068
                    6          7          8
     6  H    0.000000
     7  O    3.259062   0.000000
     8  O    3.379213   1.320000   0.000000
 Stoichiometry    C2H3O3(2)
 Framework group  C1[X(C2H3O3)]
 Deg. of freedom    18
 Full point group                 C1      NOp   1
 Largest Abelian subgroup         C1      NOp   1
 Largest concise Abelian subgroup C1      NOp   1
                         Standard orientation:                         
 ---------------------------------------------------------------------
 Center     Atomic     Atomic              Coordinates (Angstroms)
 Number     Number      Type              X           Y           Z
 ---------------------------------------------------------------------
    1          6             0       -0.479070   -0.171747   -0.001565
    2          8             0       -1.520055   -0.878767    0.004974
    3          6             0       -0.591412    1.364150   -0.002108
    4          1             0       -1.115452    1.683749    0.874327
    5          1             0        0.388671    1.793455   -0.008081
    6          1             0       -1.125509    1.682396   -0.872946
    7          8             0        0.808184   -0.794504   -0.008492
    8          8             0        1.746269    0.134018    0.007109
 ---------------------------------------------------------------------
 Rotational constants (GHZ):      9.1271454      4.7010119      3.1627021
 Standard basis: 6-311+G(3df,2p) (5D, 7F)
 There are   222 symmetry adapted basis functions of A   symmetry.
 Integral buffers will be    262144 words long.
 Raffenetti 2 integral format.
 Two-electron integral symmetry is turned on.
   222 basis functions,   323 primitive gaussians,   252 cartesian basis functions
    20 alpha electrons       19 beta electrons
       nuclear repulsion energy       168.9999130042 Hartrees.
 NAtoms=    8 NActive=    8 NUniq=    8 SFac= 1.00D+00 NAtFMM=   60 Big=F
 One-electron integrals computed using PRISM.
 NBasis=   222 RedAO= T  NBF=   222
 NBsUse=   222 1.00D-06 NBFU=   222
 Harris functional with IExCor=  402 diagonalized for initial guess.
 ExpMin= 4.38D-02 ExpMax= 8.59D+03 ExpMxC= 1.30D+03 IAcc=2 IRadAn=         4 AccDes= 0.00D+00
 HarFok:  IExCor= 402 AccDes= 0.00D+00 IRadAn=         4 IDoV=1
 ScaDFX=  1.000000  1.000000  1.000000  1.000000
 Initial guess orbital symmetries:
 Alpha Orbitals:
       Occupied  (A) (A) (A) (A) (A) (A) (A) (A) (A) (A) (A) (A)
                 (A) (A) (A) (A) (A) (A) (A) (A)
       Virtual   (A) (A) (A) (A) (A) (A) (A) (A) (A) (A) (A) (A)
                 (A) (A) (A) (A) (A) (A) (A) (A) (A) (A) (A) (A)
                 (A) (A) (A) (A) (A) (A) (A) (A) (A) (A) (A) (A)
                 (A) (A) (A) (A) (A) (A) (A) (A) (A) (A) (A) (A)
                 (A) (A) (A) (A) (A) (A) (A) (A) (A) (A) (A) (A)
                 (A) (A) (A) (A) (A) (A) (A) (A) (A) (A) (A) (A)
                 (A) (A) (A) (A) (A) (A) (A) (A) (A) (A) (A) (A)
                 (A) (A) (A) (A) (A) (A) (A) (A) (A) (A) (A) (A)
                 (A) (A) (A) (A) (A) (A) (A) (A) (A) (A) (A) (A)
                 (A) (A) (A) (A) (A) (A) (A) (A) (A) (A) (A) (A)
                 (A) (A) (A) (A) (A) (A) (A) (A) (A) (A) (A) (A)
                 (A) (A) (A) (A) (A) (A) (A) (A) (A) (A) (A) (A)
                 (A) (A) (A) (A) (A) (A) (A) (A) (A) (A) (A) (A)
                 (A) (A) (A) (A) (A) (A) (A) (A) (A) (A) (A) (A)
                 (A) (A) (A) (A) (A) (A) (A) (A) (A) (A) (A) (A)
                 (A) (A) (A) (A) (A) (A) (A) (A) (A) (A) (A) (A)
                 (A) (A) (A) (A) (A) (A) (A) (A) (A) (A)
 Beta  Orbitals:
       Occupied  (A) (A) (A) (A) (A) (A) (A) (A) (A) (A) (A) (A)
                 (A) (A) (A) (A) (A) (A) (A)
       Virtual   (A) (A) (A) (A) (A) (A) (A) (A) (A) (A) (A) (A)
                 (A) (A) (A) (A) (A) (A) (A) (A) (A) (A) (A) (A)
                 (A) (A) (A) (A) (A) (A) (A) (A) (A) (A) (A) (A)
                 (A) (A) (A) (A) (A) (A) (A) (A) (A) (A) (A) (A)
                 (A) (A) (A) (A) (A) (A) (A) (A) (A) (A) (A) (A)
                 (A) (A) (A) (A) (A) (A) (A) (A) (A) (A) (A) (A)
                 (A) (A) (A) (A) (A) (A) (A) (A) (A) (A) (A) (A)
                 (A) (A) (A) (A) (A) (A) (A) (A) (A) (A) (A) (A)
                 (A) (A) (A) (A) (A) (A) (A) (A) (A) (A) (A) (A)
                 (A) (A) (A) (A) (A) (A) (A) (A) (A) (A) (A) (A)
                 (A) (A) (A) (A) (A) (A) (A) (A) (A) (A) (A) (A)
                 (A) (A) (A) (A) (A) (A) (A) (A) (A) (A) (A) (A)
                 (A) (A) (A) (A) (A) (A) (A) (A) (A) (A) (A) (A)
                 (A) (A) (A) (A) (A) (A) (A) (A) (A) (A) (A) (A)
                 (A) (A) (A) (A) (A) (A) (A) (A) (A) (A) (A) (A)
                 (A) (A) (A) (A) (A) (A) (A) (A) (A) (A) (A) (A)
                 (A) (A) (A) (A) (A) (A) (A) (A) (A) (A) (A)
 The electronic state of the initial guess is 2-A.
 <S**2> of initial guess= 0.7500
 Requested convergence on RMS density matrix=1.00D-08 within1000 cycles.
 Requested convergence on MAX density matrix=1.00D-06.
 Requested convergence on             energy=1.00D-06.
 No special actions if energy rises.
 EnCoef did     1 forward-backward iterations
 SCF Done:  E(UB+HF-LYP) =  -303.658594766     A.U. after   19 cycles
             Convg  =    0.6050D-08             -V/T =  2.0042
             S**2   =   0.7552
 Annihilation of the first spin contaminant:
 S**2 before annihilation     0.7552,   after     0.7500

 **********************************************************************

            Population analysis using the SCF density.

 **********************************************************************

 Orbital symmetries:
 Alpha Orbitals:
       Occupied  (A) (A) (A) (A) (A) (A) (A) (A) (A) (A) (A) (A)
                 (A) (A) (A) (A) (A) (A) (A) (A)
       Virtual   (A) (A) (A) (A) (A) (A) (A) (A) (A) (A) (A) (A)
                 (A) (A) (A) (A) (A) (A) (A) (A) (A) (A) (A) (A)
                 (A) (A) (A) (A) (A) (A) (A) (A) (A) (A) (A) (A)
                 (A) (A) (A) (A) (A) (A) (A) (A) (A) (A) (A) (A)
                 (A) (A) (A) (A) (A) (A) (A) (A) (A) (A) (A) (A)
                 (A) (A) (A) (A) (A) (A) (A) (A) (A) (A) (A) (A)
                 (A) (A) (A) (A) (A) (A) (A) (A) (A) (A) (A) (A)
                 (A) (A) (A) (A) (A) (A) (A) (A) (A) (A) (A) (A)
                 (A) (A) (A) (A) (A) (A) (A) (A) (A) (A) (A) (A)
                 (A) (A) (A) (A) (A) (A) (A) (A) (A) (A) (A) (A)
                 (A) (A) (A) (A) (A) (A) (A) (A) (A) (A) (A) (A)
                 (A) (A) (A) (A) (A) (A) (A) (A) (A) (A) (A) (A)
                 (A) (A) (A) (A) (A) (A) (A) (A) (A) (A) (A) (A)
                 (A) (A) (A) (A) (A) (A) (A) (A) (A) (A) (A) (A)
                 (A) (A) (A) (A) (A) (A) (A) (A) (A) (A) (A) (A)
                 (A) (A) (A) (A) (A) (A) (A) (A) (A) (A) (A) (A)
                 (A) (A) (A) (A) (A) (A) (A) (A) (A) (A)
 Beta  Orbitals:
       Occupied  (A) (A) (A) (A) (A) (A) (A) (A) (A) (A) (A) (A)
                 (A) (A) (A) (A) (A) (A) (A)
       Virtual   (A) (A) (A) (A) (A) (A) (A) (A) (A) (A) (A) (A)
                 (A) (A) (A) (A) (A) (A) (A) (A) (A) (A) (A) (A)
                 (A) (A) (A) (A) (A) (A) (A) (A) (A) (A) (A) (A)
                 (A) (A) (A) (A) (A) (A) (A) (A) (A) (A) (A) (A)
                 (A) (A) (A) (A) (A) (A) (A) (A) (A) (A) (A) (A)
                 (A) (A) (A) (A) (A) (A) (A) (A) (A) (A) (A) (A)
                 (A) (A) (A) (A) (A) (A) (A) (A) (A) (A) (A) (A)
                 (A) (A) (A) (A) (A) (A) (A) (A) (A) (A) (A) (A)
                 (A) (A) (A) (A) (A) (A) (A) (A) (A) (A) (A) (A)
                 (A) (A) (A) (A) (A) (A) (A) (A) (A) (A) (A) (A)
                 (A) (A) (A) (A) (A) (A) (A) (A) (A) (A) (A) (A)
                 (A) (A) (A) (A) (A) (A) (A) (A) (A) (A) (A) (A)
                 (A) (A) (A) (A) (A) (A) (A) (A) (A) (A) (A) (A)
                 (A) (A) (A) (A) (A) (A) (A) (A) (A) (A) (A) (A)
                 (A) (A) (A) (A) (A) (A) (A) (A) (A) (A) (A) (A)
                 (A) (A) (A) (A) (A) (A) (A) (A) (A) (A) (A) (A)
                 (A) (A) (A) (A) (A) (A) (A) (A) (A) (A) (A)
 The electronic state is 2-A.
 Alpha  occ. eigenvalues --  -19.29765 -19.24603 -19.16407 -10.35265 -10.20430
 Alpha  occ. eigenvalues --   -1.24968  -1.06965  -0.91482  -0.78034  -0.63216
 Alpha  occ. eigenvalues --   -0.55630  -0.54867  -0.52264  -0.46953  -0.45123
 Alpha  occ. eigenvalues --   -0.43761  -0.40285  -0.35548  -0.33654  -0.30707
 Alpha virt. eigenvalues --   -0.06357  -0.00548   0.02168   0.03796   0.04026
 Alpha virt. eigenvalues --    0.06070   0.06930   0.07648   0.08162   0.10725
 Alpha virt. eigenvalues --    0.12604   0.13638   0.13872   0.17162   0.19071
 Alpha virt. eigenvalues --    0.19562   0.20389   0.22305   0.23181   0.23444
 Alpha virt. eigenvalues --    0.25820   0.26423   0.27990   0.28813   0.29689
 Alpha virt. eigenvalues --    0.30445   0.30566   0.34502   0.35361   0.36234
 Alpha virt. eigenvalues --    0.39716   0.43676   0.47986   0.48364   0.51392
 Alpha virt. eigenvalues --    0.52291   0.53228   0.58842   0.59444   0.62742
 Alpha virt. eigenvalues --    0.63971   0.67510   0.71291   0.72403   0.74459
 Alpha virt. eigenvalues --    0.76504   0.80583   0.84454   0.85450   0.87852
 Alpha virt. eigenvalues --    0.89946   0.90832   0.92824   0.95564   0.96202
 Alpha virt. eigenvalues --    0.99334   1.00708   1.01097   1.01313   1.04815
 Alpha virt. eigenvalues --    1.06111   1.07573   1.07872   1.10485   1.11124
 Alpha virt. eigenvalues --    1.13033   1.15906   1.18208   1.21163   1.24934
 Alpha virt. eigenvalues --    1.29705   1.32697   1.33375   1.35275   1.38130
 Alpha virt. eigenvalues --    1.40084   1.41252   1.45220   1.51269   1.54119
 Alpha virt. eigenvalues --    1.57000   1.64870   1.72617   1.78249   1.82096
 Alpha virt. eigenvalues --    1.88363   1.97054   2.00288   2.03379   2.05077
 Alpha virt. eigenvalues --    2.09388   2.17173   2.19800   2.33596   2.39499
 Alpha virt. eigenvalues --    2.57502   2.60307   2.70111   2.71481   2.83010
 Alpha virt. eigenvalues --    2.85106   2.85445   2.91735   2.95720   2.96147
 Alpha virt. eigenvalues --    3.04861   3.06281   3.09866   3.10589   3.19786
 Alpha virt. eigenvalues --    3.20229   3.25255   3.26477   3.33344   3.36870
 Alpha virt. eigenvalues --    3.41518   3.47644   3.51798   3.53289   3.55760
 Alpha virt. eigenvalues --    3.60041   3.62106   3.66639   3.71293   3.78671
 Alpha virt. eigenvalues --    3.83135   3.95570   3.97852   4.00323   4.11879
 Alpha virt. eigenvalues --    4.24670   4.25091   4.28920   4.32808   4.36340
 Alpha virt. eigenvalues --    4.45207   4.49913   4.55336   4.58284   4.62149
 Alpha virt. eigenvalues --    4.68253   4.73184   4.88107   4.92438   4.93949
 Alpha virt. eigenvalues --    4.95361   5.00347   5.02681   5.05018   5.05646
 Alpha virt. eigenvalues --    5.10993   5.17973   5.22689   5.30968   5.31397
 Alpha virt. eigenvalues --    5.37443   5.42377   5.50539   5.51104   5.52617
 Alpha virt. eigenvalues --    5.69288   5.69628   5.79887   5.81402   5.84970
 Alpha virt. eigenvalues --    6.14082   6.17640   6.37371   6.40134   6.61675
 Alpha virt. eigenvalues --    6.68606   7.02791   7.26780   7.26999   7.38329
 Alpha virt. eigenvalues --    7.54298   7.62916   7.73236   7.83932   7.94220
 Alpha virt. eigenvalues --    8.20615   8.33172  14.05180  14.09934  14.16324
 Alpha virt. eigenvalues --   14.20460  14.25029  14.28142  14.30616  14.33300
 Alpha virt. eigenvalues --   14.46684  14.51014  14.57527  14.59862  14.81237
 Alpha virt. eigenvalues --   15.00314  15.58046  24.36686  24.64367  49.94505
 Alpha virt. eigenvalues --   50.05697  50.29730
  Beta  occ. eigenvalues --  -19.29006 -19.22522 -19.16205 -10.35341 -10.20434
  Beta  occ. eigenvalues --   -1.22513  -1.06433  -0.87752  -0.77950  -0.62004
  Beta  occ. eigenvalues --   -0.53952  -0.51724  -0.50874  -0.45115  -0.44748
  Beta  occ. eigenvalues --   -0.43667  -0.37843  -0.34366  -0.29852
  Beta virt. eigenvalues --   -0.17121  -0.05434  -0.00510   0.02684   0.03988
  Beta virt. eigenvalues --    0.04131   0.06482   0.07019   0.08016   0.08201
  Beta virt. eigenvalues --    0.11099   0.13208   0.13877   0.13968   0.17303
  Beta virt. eigenvalues --    0.19475   0.19688   0.20425   0.22354   0.23273
  Beta virt. eigenvalues --    0.24182   0.25940   0.26642   0.28052   0.28930
  Beta virt. eigenvalues --    0.29773   0.30484   0.30612   0.34586   0.35445
  Beta virt. eigenvalues --    0.36466   0.39854   0.43776   0.48150   0.48385
  Beta virt. eigenvalues --    0.51494   0.52309   0.53353   0.58844   0.59539
  Beta virt. eigenvalues --    0.62744   0.64032   0.67547   0.71360   0.72546
  Beta virt. eigenvalues --    0.75177   0.76667   0.81056   0.84806   0.85781
  Beta virt. eigenvalues --    0.88893   0.91239   0.91324   0.93183   0.95950
  Beta virt. eigenvalues --    0.97393   1.00110   1.01384   1.01637   1.02549
  Beta virt. eigenvalues --    1.06256   1.06815   1.08045   1.08160   1.11214
  Beta virt. eigenvalues --    1.11554   1.13204   1.16928   1.18285   1.21510
  Beta virt. eigenvalues --    1.25215   1.29953   1.32955   1.33554   1.35678
  Beta virt. eigenvalues --    1.38324   1.41296   1.41405   1.45379   1.51552
  Beta virt. eigenvalues --    1.54180   1.57150   1.65105   1.72844   1.78301
  Beta virt. eigenvalues --    1.82161   1.88847   1.97140   2.00256   2.03750
  Beta virt. eigenvalues --    2.05104   2.09436   2.17795   2.19892   2.33816
  Beta virt. eigenvalues --    2.40472   2.57529   2.60452   2.69991   2.71508
  Beta virt. eigenvalues --    2.82990   2.85366   2.85675   2.91856   2.96406
  Beta virt. eigenvalues --    2.96475   3.05201   3.09206   3.10466   3.11343
  Beta virt. eigenvalues --    3.19802   3.20843   3.25657   3.26498   3.37589
  Beta virt. eigenvalues --    3.38628   3.45047   3.48384   3.53831   3.55046
  Beta virt. eigenvalues --    3.58205   3.60654   3.62652   3.67124   3.72683
  Beta virt. eigenvalues --    3.78918   3.84224   3.96073   3.98058   4.00390
  Beta virt. eigenvalues --    4.12213   4.24902   4.25115   4.29003   4.32959
  Beta virt. eigenvalues --    4.36706   4.45320   4.50057   4.55429   4.62101
  Beta virt. eigenvalues --    4.62283   4.70292   4.74573   4.88966   4.93373
  Beta virt. eigenvalues --    4.99647   5.01657   5.03084   5.05277   5.06889
  Beta virt. eigenvalues --    5.07255   5.13514   5.19343   5.23622   5.32226
  Beta virt. eigenvalues --    5.32745   5.38596   5.43463   5.50931   5.52695
  Beta virt. eigenvalues --    5.53443   5.70424   5.70521   5.81096   5.81447
  Beta virt. eigenvalues --    5.85138   6.14432   6.18153   6.40367   6.40674
  Beta virt. eigenvalues --    6.61852   6.68776   7.02676   7.26755   7.26849
  Beta virt. eigenvalues --    7.38234   7.54080   7.63949   7.73231   7.83939
  Beta virt. eigenvalues --    7.94192   8.20608   8.33154  14.10931  14.13528
  Beta virt. eigenvalues --   14.22510  14.23798  14.31279  14.31415  14.31787
  Beta virt. eigenvalues --   14.34336  14.48826  14.54843  14.60123  14.60709
  Beta virt. eigenvalues --   14.81694  15.00929  15.59960  24.36680  24.64290
  Beta virt. eigenvalues --   49.96066  50.06950  50.29959
          Condensed to atoms (all electrons):
              1          2          3          4          5          6
     1  C    5.325458   0.207307  -0.145979  -0.027896  -0.028203  -0.028083
     2  O    0.207307   8.569856  -0.073998  -0.006062   0.003050  -0.006018
     3  C   -0.145979  -0.073998   5.326961   0.424079   0.411587   0.424218
     4  H   -0.027896  -0.006062   0.424079   0.457135  -0.015629  -0.013854
     5  H   -0.028203   0.003050   0.411587  -0.015629   0.464763  -0.015845
     6  H   -0.028083  -0.006018   0.424218  -0.013854  -0.015845   0.457292
     7  O    0.067561  -0.103625  -0.077683  -0.000741  -0.003326  -0.000997
     8  O   -0.201824   0.017770   0.073011  -0.000004  -0.013165   0.000385
              7          8
     1  C    0.067561  -0.201824
     2  O   -0.103625   0.017770
     3  C   -0.077683   0.073011
     4  H   -0.000741  -0.000004
     5  H   -0.003326  -0.013165
     6  H   -0.000997   0.000385
     7  O    8.365607   0.014100
     8  O    0.014100   8.272657
 Mulliken atomic charges:
              1
     1  C    0.831659
     2  O   -0.608281
     3  C   -0.362195
     4  H    0.182973
     5  H    0.196769
     6  H    0.182902
     7  O   -0.260896
     8  O   -0.162930
 Sum of Mulliken charges=   0.00000
 Atomic charges with hydrogens summed into heavy atoms:
              1
     1  C    0.831659
     2  O   -0.608281
     3  C    0.200449
     4  H    0.000000
     5  H    0.000000
     6  H    0.000000
     7  O   -0.260896
     8  O   -0.162930
 Sum of Mulliken charges=   0.00000
          Atomic-Atomic Spin Densities.
              1          2          3          4          5          6
     1  C   -0.051820  -0.008922   0.005445   0.000922  -0.001153   0.001065
     2  O   -0.008922   0.090737  -0.000217  -0.000190   0.000037  -0.000180
     3  C    0.005445  -0.000217  -0.001970  -0.001220   0.000739  -0.001349
     4  H    0.000922  -0.000190  -0.001220  -0.001151   0.000063   0.000005
     5  H   -0.001153   0.000037   0.000739   0.000063  -0.000132   0.000046
     6  H    0.001065  -0.000180  -0.001349   0.000005   0.000046  -0.001153
     7  O    0.010179  -0.005825  -0.005089   0.000245   0.000124   0.000247
     8  O   -0.000083   0.001340   0.001961  -0.000374   0.000648  -0.000377
              7          8
     1  C    0.010179  -0.000083
     2  O   -0.005825   0.001340
     3  C   -0.005089   0.001961
     4  H    0.000245  -0.000374
     5  H    0.000124   0.000648
     6  H    0.000247  -0.000377
     7  O    0.340839  -0.113717
     8  O   -0.113717   0.855910
 Mulliken atomic spin densities:
              1
     1  C   -0.044367
     2  O    0.076780
     3  C   -0.001700
     4  H   -0.001700
     5  H    0.000373
     6  H   -0.001696
     7  O    0.227003
     8  O    0.745307
 Sum of Mulliken spin densities=   1.00000
 Electronic spatial extent (au):  <R**2>=   378.4413
 Charge=     0.0000 electrons
 Dipole moment (field-independent basis, Debye):
    X=     0.1773    Y=     2.5777    Z=    -0.0139  Tot=     2.5838
 Quadrupole moment (field-independent basis, Debye-Ang):
   XX=   -33.9525   YY=   -28.5405   ZZ=   -26.8830
   XY=    -2.9573   XZ=     0.0120   YZ=    -0.0026
 Traceless Quadrupole moment (field-independent basis, Debye-Ang):
   XX=    -4.1605   YY=     1.2515   ZZ=     2.9090
   XY=    -2.9573   XZ=     0.0120   YZ=    -0.0026
 Octapole moment (field-independent basis, Debye-Ang**2):
  XXX=     6.5644  YYY=     1.0735  ZZZ=     0.0183  XYY=     2.1213
  XXY=     4.1849  XXZ=    -0.0512  XZZ=     0.8487  YZZ=    -0.5191
  YYZ=     0.0000  XYZ=    -0.0262
 Hexadecapole moment (field-independent basis, Debye-Ang**3):
 XXXX=  -272.5085 YYYY=  -169.6390 ZZZZ=   -29.7506 XXXY=    -3.0048
 XXXZ=     0.0385 YYYX=    -2.7073 YYYZ=     0.0245 ZZZX=     0.0012
 ZZZY=     0.0319 XXYY=   -69.8934 XXZZ=   -44.5449 YYZZ=   -31.4090
 XXYZ=    -0.0088 YYXZ=     0.0117 ZZXY=    -1.5265
 N-N= 1.689999130042D+02 E-N=-1.051847476079D+03  KE= 3.023968191712D+02
                          Isotropic Fermi Contact Couplings
        Atom                 a.u.       MegaHertz       Gauss      10(-4) cm-1
     1  C(13)             -0.01264     -14.21023      -5.07056      -4.74002
     2  O(17)              0.00548      -3.32375      -1.18600      -1.10868
     3  C(13)             -0.00070      -0.78663      -0.28069      -0.26239
     4  H(1)              -0.00083      -3.69545      -1.31863      -1.23267
     5  H(1)               0.00005       0.24098       0.08599       0.08038
     6  H(1)              -0.00082      -3.68596      -1.31524      -1.22950
     7  O(17)              0.03365     -20.39708      -7.27819      -6.80373
     8  O(17)              0.05469     -33.15455     -11.83037     -11.05917
 --------------------------------------------------------
       Center         ----  Spin Dipole Couplings  ----
                      3XX-RR        3YY-RR        3ZZ-RR
 --------------------------------------------------------
     1   Atom        0.045567      0.008553     -0.054120
     2   Atom       -0.164940     -0.164368      0.329308
     3   Atom        0.007076      0.000062     -0.007138
     4   Atom        0.002965      0.000258     -0.003222
     5   Atom       -0.000319      0.010384     -0.010064
     6   Atom        0.002941      0.000254     -0.003195
     7   Atom       -0.623948     -0.671338      1.295286
     8   Atom       -1.657681     -1.643553      3.301234
 --------------------------------------------------------
                        XY            XZ            YZ
 --------------------------------------------------------
     1   Atom       -0.000937     -0.000234      0.000206
     2   Atom        0.010743      0.006978     -0.000950
     3   Atom       -0.009060      0.000029     -0.000011
     4   Atom       -0.004005     -0.001617      0.001414
     5   Atom       -0.015111      0.000048     -0.000090
     6   Atom       -0.003970      0.001609     -0.001403
     7   Atom       -0.027845     -0.006862     -0.027537
     8   Atom       -0.006587     -0.020148     -0.067015
 --------------------------------------------------------


 ---------------------------------------------------------------------------------
              Anisotropic Spin Dipole Couplings in Principal Axis System
 ---------------------------------------------------------------------------------

       Atom             a.u.   MegaHertz   Gauss  10(-4) cm-1        Axes

              Baa    -0.0541    -7.263    -2.591    -2.423  0.0023 -0.0033  1.0000
     1 C(13)  Bbb     0.0085     1.145     0.408     0.382  0.0253  0.9997  0.0032
              Bcc     0.0456     6.118     2.183     2.041  0.9997 -0.0253 -0.0024
 
              Baa    -0.1755    12.697     4.530     4.235  0.7179 -0.6960 -0.0112
     2 O(17)  Bbb    -0.1539    11.139     3.975     3.716  0.6960  0.7180 -0.0086
              Bcc     0.3294   -23.836    -8.505    -7.951  0.0141 -0.0016  0.9999
 
              Baa    -0.0071    -0.958    -0.342    -0.320 -0.0051 -0.0049  1.0000
     3 C(13)  Bbb    -0.0061    -0.825    -0.294    -0.275  0.5652  0.8249  0.0069
              Bcc     0.0133     1.783     0.636     0.595  0.8249 -0.5653  0.0015
 
              Baa    -0.0037    -1.994    -0.712    -0.665  0.0714 -0.2684  0.9607
     4 H(1)   Bbb    -0.0026    -1.377    -0.491    -0.459  0.6092  0.7744  0.1711
              Bcc     0.0063     3.371     1.203     1.124  0.7898 -0.5730 -0.2188
 
              Baa    -0.0110    -5.868    -2.094    -1.957  0.8165  0.5771  0.0142
     5 H(1)   Bbb    -0.0101    -5.370    -1.916    -1.791 -0.0134 -0.0055  0.9999
              Bcc     0.0211    11.238     4.010     3.749 -0.5771  0.8166 -0.0032
 
              Baa    -0.0037    -1.978    -0.706    -0.660 -0.0733  0.2668  0.9610
     6 H(1)   Bbb    -0.0026    -1.365    -0.487    -0.455  0.6089  0.7751 -0.1688
              Bcc     0.0063     3.343     1.193     1.115  0.7899 -0.5727  0.2193
 
              Baa    -0.6846    49.537    17.676    16.524  0.4185  0.9081  0.0141
     7 O(17)  Bbb    -0.6111    44.218    15.778    14.750  0.9082 -0.4185 -0.0028
              Bcc     1.2957   -93.755   -33.454   -31.273 -0.0034 -0.0140  0.9999
 
              Baa    -1.6607   120.165    42.878    40.083  0.9209  0.3897  0.0090
     8 O(17)  Bbb    -1.6416   118.782    42.384    39.621 -0.3898  0.9208  0.0109
              Bcc     3.3022  -238.947   -85.262   -79.704 -0.0040 -0.0135  0.9999
 

 ---------------------------------------------------------------------------------

 ***** Axes restored to original set *****
 -------------------------------------------------------------------
 Center     Atomic                   Forces (Hartrees/Bohr)
 Number     Number              X              Y              Z
 -------------------------------------------------------------------
    1          6           0.095270171    0.037808288   -0.018203447
    2          8          -0.095197922   -0.021905273    0.016757262
    3          6          -0.003882235   -0.033881320    0.004077067
    4          1           0.005174601    0.003545580   -0.011052776
    5          1          -0.009675526    0.003837232    0.001065662
    6          1           0.008209163    0.005467222    0.008107305
    7          8           0.006579276    0.020942779   -0.003330876
    8          8          -0.006477529   -0.015814506    0.002579802
 -------------------------------------------------------------------
 Cartesian Forces:  Max     0.095270171 RMS     0.031001248

 GradGradGradGradGradGradGradGradGradGradGradGradGradGradGradGradGradGrad
 Berny optimization.
 Internal  Forces:  Max     0.097140097 RMS     0.023122075
 Search for a local minimum.
 Step number   1 out of a maximum of  35
 All quantities printed in internal units (Hartrees-Bohrs-Radians)
 Second derivative matrix not updated -- first step.
     Eigenvalues ---    0.00237   0.00501   0.01295   0.07243   0.07243
     Eigenvalues ---    0.16000   0.16000   0.16000   0.25000   0.25000
     Eigenvalues ---    0.25000   0.28519   0.37230   0.37230   0.37230
     Eigenvalues ---    0.40989   0.61931   0.802091000.000001000.00000
     Eigenvalues --- 1000.000001000.000001000.000001000.000001000.00000
 RFO step:  Lambda=-2.58232231D-02.
 Linear search not attempted -- first point.
 Iteration  1 RMS(Cart)=  0.09738127 RMS(Int)=  0.00834868
 Iteration  2 RMS(Cart)=  0.00790563 RMS(Int)=  0.00061478
 Iteration  3 RMS(Cart)=  0.00003662 RMS(Int)=  0.00061454
 Iteration  4 RMS(Cart)=  0.00000001 RMS(Int)=  0.00061454
 Variable       Old X    -DE/DX   Delta X   Delta X   Delta X     New X
                                 (Linear)    (Quad)   (Total)
    R1        2.37803  -0.09714   0.00000  -0.11733  -0.11733   2.26070
    R2        2.91018  -0.01778   0.00000  -0.05718  -0.05718   2.85300
    R3        2.70231  -0.00465   0.00000  -0.01066  -0.01066   2.69165
    R4        2.02201   0.01192   0.00000   0.02993   0.02993   2.05193
    R5        2.02201   0.00872   0.00000   0.02190   0.02190   2.04391
    R6        2.02201   0.01193   0.00000   0.02997   0.02997   2.05198
    R7        2.49444   0.00418   0.00000   0.00648   0.00648   2.50092
    A1        2.09440   0.01931   0.00000   0.07000   0.07000   2.16439
    A2        2.09440  -0.02747   0.00000  -0.09961  -0.09961   1.99479
    A3        2.09440   0.00817   0.00000   0.02961   0.02961   2.12400
    A4        1.91063  -0.00678   0.00000  -0.04112  -0.04183   1.86880
    A5        1.91063   0.01169   0.00000   0.07214   0.07245   1.98309
    A6        1.91063  -0.00693   0.00000  -0.04190  -0.04260   1.86804
    A7        1.91063  -0.00005   0.00000   0.00898   0.00928   1.91992
    A8        1.91063   0.00203   0.00000  -0.00755  -0.00959   1.90105
    A9        1.91063   0.00004   0.00000   0.00945   0.00977   1.92041
   A10        1.91063   0.04183   0.00000   0.15167   0.15167   2.06230
    D1        1.04720  -0.00288   0.00000  -0.02760  -0.02657   1.02063
    D2        3.14159   0.00007   0.00000   0.00240   0.00244  -3.13915
    D3       -1.04720   0.00303   0.00000   0.03250   0.03153  -1.01567
    D4       -2.09440  -0.00297   0.00000  -0.03066  -0.02970  -2.12409
    D5        0.00000  -0.00003   0.00000  -0.00067  -0.00069  -0.00069
    D6        2.09440   0.00293   0.00000   0.02943   0.02839   2.12279
    D7       -3.12414  -0.00001   0.00000  -0.00067  -0.00056  -3.12470
    D8        0.01745   0.00008   0.00000   0.00239   0.00228   0.01974
         Item               Value     Threshold  Converged?
 Maximum Force            0.097140     0.000450     NO 
 RMS     Force            0.023122     0.000300     NO 
 Maximum Displacement     0.382784     0.001800     NO 
 RMS     Displacement     0.100506     0.001200     NO 
 Predicted change in Energy=-1.380508D-02
 GradGradGradGradGradGradGradGradGradGradGradGradGradGradGradGradGradGrad

                          Input orientation:                          
 ---------------------------------------------------------------------
 Center     Atomic     Atomic              Coordinates (Angstroms)
 Number     Number      Type              X           Y           Z
 ---------------------------------------------------------------------
    1          6             0        0.985702   -1.455132   -0.019919
    2          8             0        2.168384   -1.508513   -0.191887
    3          6             0        0.188258   -0.173203   -0.027545
    4          1             0        0.343129    0.292853   -0.995971
    5          1             0       -0.868954   -0.319393    0.147869
    6          1             0        0.608012    0.467038    0.742511
    7          8             0        0.368157   -2.719345    0.201885
    8          8             0       -0.942605   -2.751220    0.381750
 ---------------------------------------------------------------------
                    Distance matrix (angstroms):
                    1          2          3          4          5
     1  C    0.000000
     2  O    1.196311   0.000000
     3  C    1.509740   2.393943   0.000000
     4  H    2.102624   2.687569   1.085837   0.000000
     5  H    2.181239   3.279460   1.081590   1.775488   0.000000
     6  H    2.102067   2.685268   1.085858   1.767151   1.775810
     7  O    1.424358   2.204992   2.562780   3.241732   2.700580
     8  O    2.357870   3.398769   2.844740   3.580169   2.444158
                    6          7          8
     6  H    0.000000
     7  O    3.240810   0.000000
     8  O    3.590508   1.323429   0.000000
 Stoichiometry    C2H3O3(2)
 Framework group  C1[X(C2H3O3)]
 Deg. of freedom    18
 Full point group                 C1      NOp   1
 Largest Abelian subgroup         C1      NOp   1
 Largest concise Abelian subgroup C1      NOp   1
                         Standard orientation:                         
 ---------------------------------------------------------------------
 Center     Atomic     Atomic              Coordinates (Angstroms)
 Number     Number      Type              X           Y           Z
 ---------------------------------------------------------------------
    1          6             0       -0.500874   -0.174344   -0.000273
    2          8             0       -1.334086   -1.032771    0.004265
    3          6             0       -0.810729    1.303257   -0.001571
    4          1             0       -1.403986    1.505382    0.885127
    5          1             0        0.070165    1.930805   -0.008322
    6          1             0       -1.414848    1.500745   -0.881984
    7          8             0        0.838802   -0.658081   -0.008267
    8          8             0        1.822570    0.227051    0.006032
 ---------------------------------------------------------------------
 Rotational constants (GHZ):      9.2229502      4.6125202      3.1348851
 Standard basis: 6-311+G(3df,2p) (5D, 7F)
 There are   222 symmetry adapted basis functions of A   symmetry.
 Integral buffers will be    262144 words long.
 Raffenetti 2 integral format.
 Two-electron integral symmetry is turned on.
   222 basis functions,   323 primitive gaussians,   252 cartesian basis functions
    20 alpha electrons       19 beta electrons
       nuclear repulsion energy       169.6926606092 Hartrees.
 NAtoms=    8 NActive=    8 NUniq=    8 SFac= 1.00D+00 NAtFMM=   60 Big=F
 One-electron integrals computed using PRISM.
 NBasis=   222 RedAO= T  NBF=   222
 NBsUse=   222 1.00D-06 NBFU=   222
 Initial guess read from the read-write file:
 Initial guess orbital symmetries:
 Alpha Orbitals:
       Occupied  (A) (A) (A) (A) (A) (A) (A) (A) (A) (A) (A) (A)
                 (A) (A) (A) (A) (A) (A) (A) (A)
       Virtual   (A) (A) (A) (A) (A) (A) (A) (A) (A) (A) (A) (A)
                 (A) (A) (A) (A) (A) (A) (A) (A) (A) (A) (A) (A)
                 (A) (A) (A) (A) (A) (A) (A) (A) (A) (A) (A) (A)
                 (A) (A) (A) (A) (A) (A) (A) (A) (A) (A) (A) (A)
                 (A) (A) (A) (A) (A) (A) (A) (A) (A) (A) (A) (A)
                 (A) (A) (A) (A) (A) (A) (A) (A) (A) (A) (A) (A)
                 (A) (A) (A) (A) (A) (A) (A) (A) (A) (A) (A) (A)
                 (A) (A) (A) (A) (A) (A) (A) (A) (A) (A) (A) (A)
                 (A) (A) (A) (A) (A) (A) (A) (A) (A) (A) (A) (A)
                 (A) (A) (A) (A) (A) (A) (A) (A) (A) (A) (A) (A)
                 (A) (A) (A) (A) (A) (A) (A) (A) (A) (A) (A) (A)
                 (A) (A) (A) (A) (A) (A) (A) (A) (A) (A) (A) (A)
                 (A) (A) (A) (A) (A) (A) (A) (A) (A) (A) (A) (A)
                 (A) (A) (A) (A) (A) (A) (A) (A) (A) (A) (A) (A)
                 (A) (A) (A) (A) (A) (A) (A) (A) (A) (A) (A) (A)
                 (A) (A) (A) (A) (A) (A) (A) (A) (A) (A) (A) (A)
                 (A) (A) (A) (A) (A) (A) (A) (A) (A) (A)
 Beta  Orbitals:
       Occupied  (A) (A) (A) (A) (A) (A) (A) (A) (A) (A) (A) (A)
                 (A) (A) (A) (A) (A) (A) (A)
       Virtual   (A) (A) (A) (A) (A) (A) (A) (A) (A) (A) (A) (A)
                 (A) (A) (A) (A) (A) (A) (A) (A) (A) (A) (A) (A)
                 (A) (A) (A) (A) (A) (A) (A) (A) (A) (A) (A) (A)
                 (A) (A) (A) (A) (A) (A) (A) (A) (A) (A) (A) (A)
                 (A) (A) (A) (A) (A) (A) (A) (A) (A) (A) (A) (A)
                 (A) (A) (A) (A) (A) (A) (A) (A) (A) (A) (A) (A)
                 (A) (A) (A) (A) (A) (A) (A) (A) (A) (A) (A) (A)
                 (A) (A) (A) (A) (A) (A) (A) (A) (A) (A) (A) (A)
                 (A) (A) (A) (A) (A) (A) (A) (A) (A) (A) (A) (A)
                 (A) (A) (A) (A) (A) (A) (A) (A) (A) (A) (A) (A)
                 (A) (A) (A) (A) (A) (A) (A) (A) (A) (A) (A) (A)
                 (A) (A) (A) (A) (A) (A) (A) (A) (A) (A) (A) (A)
                 (A) (A) (A) (A) (A) (A) (A) (A) (A) (A) (A) (A)
                 (A) (A) (A) (A) (A) (A) (A) (A) (A) (A) (A) (A)
                 (A) (A) (A) (A) (A) (A) (A) (A) (A) (A) (A) (A)
                 (A) (A) (A) (A) (A) (A) (A) (A) (A) (A) (A) (A)
                 (A) (A) (A) (A) (A) (A) (A) (A) (A) (A) (A)
 <S**2> of initial guess= 0.7552
 Harris functional with IExCor=  402 diagonalized for initial guess.
 ExpMin= 4.38D-02 ExpMax= 8.59D+03 ExpMxC= 1.30D+03 IAcc=2 IRadAn=         4 AccDes= 0.00D+00
 HarFok:  IExCor= 402 AccDes= 0.00D+00 IRadAn=         4 IDoV=1
 ScaDFX=  1.000000  1.000000  1.000000  1.000000
 Requested convergence on RMS density matrix=1.00D-08 within1000 cycles.
 Requested convergence on MAX density matrix=1.00D-06.
 Requested convergence on             energy=1.00D-06.
 No special actions if energy rises.
 SCF Done:  E(UB+HF-LYP) =  -303.671258710     A.U. after   18 cycles
             Convg  =    0.2768D-08             -V/T =  2.0036
             S**2   =   0.7548
 Annihilation of the first spin contaminant:
 S**2 before annihilation     0.7548,   after     0.7500
 ***** Axes restored to original set *****
 -------------------------------------------------------------------
 Center     Atomic                   Forces (Hartrees/Bohr)
 Number     Number              X              Y              Z
 -------------------------------------------------------------------
    1          6           0.017989787    0.014055445   -0.004027557
    2          8          -0.014469957   -0.004382690    0.002637771
    3          6          -0.003910313   -0.013162578    0.001820583
    4          1           0.000711627    0.001688743   -0.000996911
    5          1          -0.002074035   -0.001082809    0.000408022
    6          1           0.000949330    0.001800847    0.000376059
    7          8          -0.003076118   -0.006169685    0.000947606
    8          8           0.003879679    0.007252727   -0.001165573
 -------------------------------------------------------------------
 Cartesian Forces:  Max     0.017989787 RMS     0.006759344

 GradGradGradGradGradGradGradGradGradGradGradGradGradGradGradGradGradGrad
 Berny optimization.
 Internal  Forces:  Max     0.017965745 RMS     0.006434429
 Search for a local minimum.
 Step number   2 out of a maximum of  35
 All quantities printed in internal units (Hartrees-Bohrs-Radians)
 Update second derivatives using D2CorX and points  1  2
 Trust test= 9.17D-01 RLast= 2.66D-01 DXMaxT set to 4.24D-01
     Eigenvalues ---    0.00237   0.00466   0.01295   0.06837   0.07665
     Eigenvalues ---    0.15999   0.16000   0.16101   0.21870   0.25000
     Eigenvalues ---    0.28033   0.34684   0.37198   0.37230   0.37779
     Eigenvalues ---    0.40958   0.62034   0.715051000.000001000.00000
     Eigenvalues --- 1000.000001000.000001000.000001000.000001000.00000
 RFO step:  Lambda=-3.36827360D-03.
 Quartic linear search produced a step of -0.01202.
 Iteration  1 RMS(Cart)=  0.05737786 RMS(Int)=  0.00135824
 Iteration  2 RMS(Cart)=  0.00124718 RMS(Int)=  0.00002779
 Iteration  3 RMS(Cart)=  0.00000036 RMS(Int)=  0.00002779
 Variable       Old X    -DE/DX   Delta X   Delta X   Delta X     New X
                                 (Linear)    (Quad)   (Total)
    R1        2.26070  -0.01449   0.00141  -0.03506  -0.03365   2.22705
    R2        2.85300  -0.00686   0.00069  -0.03187  -0.03118   2.82181
    R3        2.69165  -0.00134   0.00013  -0.00478  -0.00465   2.68700
    R4        2.05193   0.00172  -0.00036   0.00891   0.00855   2.06049
    R5        2.04391   0.00224  -0.00026   0.00910   0.00884   2.05275
    R6        2.05198   0.00170  -0.00036   0.00887   0.00850   2.06048
    R7        2.50092  -0.00417  -0.00008  -0.00566  -0.00574   2.49518
    A1        2.16439   0.01341  -0.00084   0.06254   0.06169   2.22608
    A2        1.99479   0.00196   0.00120  -0.00698  -0.00579   1.98900
    A3        2.12400  -0.01537  -0.00036  -0.05554  -0.05590   2.06810
    A4        1.86880   0.00086   0.00050  -0.00151  -0.00101   1.86779
    A5        1.98309  -0.00121  -0.00087   0.00442   0.00354   1.98663
    A6        1.86804   0.00081   0.00051  -0.00189  -0.00138   1.86665
    A7        1.91992   0.00038  -0.00011   0.00479   0.00467   1.92458
    A8        1.90105  -0.00127   0.00012  -0.01204  -0.01192   1.88912
    A9        1.92041   0.00041  -0.00012   0.00510   0.00497   1.92538
   A10        2.06230  -0.01797  -0.00182  -0.04776  -0.04958   2.01272
    D1        1.02063  -0.00034   0.00032  -0.01008  -0.00979   1.01084
    D2       -3.13915  -0.00002  -0.00003  -0.00232  -0.00237  -3.14152
    D3       -1.01567   0.00030  -0.00038   0.00556   0.00517  -1.01051
    D4       -2.12409  -0.00030   0.00036  -0.00492  -0.00455  -2.12864
    D5       -0.00069   0.00002   0.00001   0.00284   0.00287   0.00218
    D6        2.12279   0.00034  -0.00034   0.01072   0.01041   2.13320
    D7       -3.12470  -0.00014   0.00001  -0.00750  -0.00758  -3.13229
    D8        0.01974  -0.00020  -0.00003  -0.01233  -0.01227   0.00747
         Item               Value     Threshold  Converged?
 Maximum Force            0.017966     0.000450     NO 
 RMS     Force            0.006434     0.000300     NO 
 Maximum Displacement     0.223119     0.001800     NO 
 RMS     Displacement     0.057606     0.001200     NO 
 Predicted change in Energy=-1.707559D-03
 GradGradGradGradGradGradGradGradGradGradGradGradGradGradGradGradGradGrad

                          Input orientation:                          
 ---------------------------------------------------------------------
 Center     Atomic     Atomic              Coordinates (Angstroms)
 Number     Number      Type              X           Y           Z
 ---------------------------------------------------------------------
    1          6             0        1.014528   -1.444997   -0.024483
    2          8             0        2.178234   -1.528253   -0.191007
    3          6             0        0.181793   -0.205517   -0.023645
    4          1             0        0.325540    0.276131   -0.991242
    5          1             0       -0.874536   -0.386692    0.153330
    6          1             0        0.587884    0.449779    0.747432
    7          8             0        0.371716   -2.694215    0.194704
    8          8             0       -0.935076   -2.633150    0.373604
 ---------------------------------------------------------------------
                    Distance matrix (angstroms):
                    1          2          3          4          5
     1  C    0.000000
     2  O    1.178505   0.000000
     3  C    1.493239   2.400712   0.000000
     4  H    2.090840   2.707149   1.090363   0.000000
     5  H    2.172600   3.277367   1.086267   1.785935   0.000000
     6  H    2.089990   2.706011   1.090359   1.766908   1.786425
     7  O    1.421898   2.184433   2.505467   3.198680   2.622883
     8  O    2.317571   3.351460   2.701593   3.451937   2.258043
                    6          7          8
     6  H    0.000000
     7  O    3.199521   0.000000
     8  O    3.458844   1.320393   0.000000
 Stoichiometry    C2H3O3(2)
 Framework group  C1[X(C2H3O3)]
 Deg. of freedom    18
 Full point group                 C1      NOp   1
 Largest Abelian subgroup         C1      NOp   1
 Largest concise Abelian subgroup C1      NOp   1
                         Standard orientation:                         
 ---------------------------------------------------------------------
 Center     Atomic     Atomic              Coordinates (Angstroms)
 Number     Number      Type              X           Y           Z
 ---------------------------------------------------------------------
    1          6             0       -0.525707   -0.151654   -0.001183
    2          8             0       -1.395767   -0.946546    0.002467
    3          6             0       -0.652463    1.336195   -0.000739
    4          1             0       -1.227678    1.607173    0.885031
    5          1             0        0.300391    1.857760   -0.004786
    6          1             0       -1.235382    1.605852   -0.881860
    7          8             0        0.777028   -0.721451   -0.003909
    8          8             0        1.772700    0.145743    0.003086
 ---------------------------------------------------------------------
 Rotational constants (GHZ):      9.2957137      4.8401195      3.2472268
 Standard basis: 6-311+G(3df,2p) (5D, 7F)
 There are   222 symmetry adapted basis functions of A   symmetry.
 Integral buffers will be    262144 words long.
 Raffenetti 2 integral format.
 Two-electron integral symmetry is turned on.
   222 basis functions,   323 primitive gaussians,   252 cartesian basis functions
    20 alpha electrons       19 beta electrons
       nuclear repulsion energy       171.6575348960 Hartrees.
 NAtoms=    8 NActive=    8 NUniq=    8 SFac= 1.00D+00 NAtFMM=   60 Big=F
 One-electron integrals computed using PRISM.
 NBasis=   222 RedAO= T  NBF=   222
 NBsUse=   222 1.00D-06 NBFU=   222
 Initial guess read from the read-write file:
 Initial guess orbital symmetries:
 Alpha Orbitals:
       Occupied  (A) (A) (A) (A) (A) (A) (A) (A) (A) (A) (A) (A)
                 (A) (A) (A) (A) (A) (A) (A) (A)
       Virtual   (A) (A) (A) (A) (A) (A) (A) (A) (A) (A) (A) (A)
                 (A) (A) (A) (A) (A) (A) (A) (A) (A) (A) (A) (A)
                 (A) (A) (A) (A) (A) (A) (A) (A) (A) (A) (A) (A)
                 (A) (A) (A) (A) (A) (A) (A) (A) (A) (A) (A) (A)
                 (A) (A) (A) (A) (A) (A) (A) (A) (A) (A) (A) (A)
                 (A) (A) (A) (A) (A) (A) (A) (A) (A) (A) (A) (A)
                 (A) (A) (A) (A) (A) (A) (A) (A) (A) (A) (A) (A)
                 (A) (A) (A) (A) (A) (A) (A) (A) (A) (A) (A) (A)
                 (A) (A) (A) (A) (A) (A) (A) (A) (A) (A) (A) (A)
                 (A) (A) (A) (A) (A) (A) (A) (A) (A) (A) (A) (A)
                 (A) (A) (A) (A) (A) (A) (A) (A) (A) (A) (A) (A)
                 (A) (A) (A) (A) (A) (A) (A) (A) (A) (A) (A) (A)
                 (A) (A) (A) (A) (A) (A) (A) (A) (A) (A) (A) (A)
                 (A) (A) (A) (A) (A) (A) (A) (A) (A) (A) (A) (A)
                 (A) (A) (A) (A) (A) (A) (A) (A) (A) (A) (A) (A)
                 (A) (A) (A) (A) (A) (A) (A) (A) (A) (A) (A) (A)
                 (A) (A) (A) (A) (A) (A) (A) (A) (A) (A)
 Beta  Orbitals:
       Occupied  (A) (A) (A) (A) (A) (A) (A) (A) (A) (A) (A) (A)
                 (A) (A) (A) (A) (A) (A) (A)
       Virtual   (A) (A) (A) (A) (A) (A) (A) (A) (A) (A) (A) (A)
                 (A) (A) (A) (A) (A) (A) (A) (A) (A) (A) (A) (A)
                 (A) (A) (A) (A) (A) (A) (A) (A) (A) (A) (A) (A)
                 (A) (A) (A) (A) (A) (A) (A) (A) (A) (A) (A) (A)
                 (A) (A) (A) (A) (A) (A) (A) (A) (A) (A) (A) (A)
                 (A) (A) (A) (A) (A) (A) (A) (A) (A) (A) (A) (A)
                 (A) (A) (A) (A) (A) (A) (A) (A) (A) (A) (A) (A)
                 (A) (A) (A) (A) (A) (A) (A) (A) (A) (A) (A) (A)
                 (A) (A) (A) (A) (A) (A) (A) (A) (A) (A) (A) (A)
                 (A) (A) (A) (A) (A) (A) (A) (A) (A) (A) (A) (A)
                 (A) (A) (A) (A) (A) (A) (A) (A) (A) (A) (A) (A)
                 (A) (A) (A) (A) (A) (A) (A) (A) (A) (A) (A) (A)
                 (A) (A) (A) (A) (A) (A) (A) (A) (A) (A) (A) (A)
                 (A) (A) (A) (A) (A) (A) (A) (A) (A) (A) (A) (A)
                 (A) (A) (A) (A) (A) (A) (A) (A) (A) (A) (A) (A)
                 (A) (A) (A) (A) (A) (A) (A) (A) (A) (A) (A) (A)
                 (A) (A) (A) (A) (A) (A) (A) (A) (A) (A) (A)
 <S**2> of initial guess= 0.7548
 Harris functional with IExCor=  402 diagonalized for initial guess.
 ExpMin= 4.38D-02 ExpMax= 8.59D+03 ExpMxC= 1.30D+03 IAcc=2 IRadAn=         4 AccDes= 0.00D+00
 HarFok:  IExCor= 402 AccDes= 0.00D+00 IRadAn=         4 IDoV=1
 ScaDFX=  1.000000  1.000000  1.000000  1.000000
 Requested convergence on RMS density matrix=1.00D-08 within1000 cycles.
 Requested convergence on MAX density matrix=1.00D-06.
 Requested convergence on             energy=1.00D-06.
 No special actions if energy rises.
 SCF Done:  E(UB+HF-LYP) =  -303.672536643     A.U. after   15 cycles
             Convg  =    0.9533D-08             -V/T =  2.0032
             S**2   =   0.7546
 Annihilation of the first spin contaminant:
 S**2 before annihilation     0.7546,   after     0.7500
 ***** Axes restored to original set *****
 -------------------------------------------------------------------
 Center     Atomic                   Forces (Hartrees/Bohr)
 Number     Number              X              Y              Z
 -------------------------------------------------------------------
    1          6          -0.006314543    0.005474958    0.000048464
    2          8           0.015382943    0.000621152   -0.002189727
    3          6          -0.002338177    0.000993288    0.000375611
    4          1          -0.000286518    0.001100698    0.001189080
    5          1           0.002844602    0.000072685   -0.000406972
    6          1          -0.000705909    0.000928927   -0.001254715
    7          8          -0.008425513   -0.006708166    0.001912366
    8          8          -0.000156884   -0.002483542    0.000325892
 -------------------------------------------------------------------
 Cartesian Forces:  Max     0.015382943 RMS     0.004368981

 GradGradGradGradGradGradGradGradGradGradGradGradGradGradGradGradGradGrad
 Berny optimization.
 Internal  Forces:  Max     0.015454341 RMS     0.004316676
 Search for a local minimum.
 Step number   3 out of a maximum of  35
 All quantities printed in internal units (Hartrees-Bohrs-Radians)
 Update second derivatives using D2CorX and points  1  2  3
 Trust test= 7.48D-01 RLast= 1.12D-01 DXMaxT set to 4.24D-01
     Eigenvalues ---    0.00237   0.00449   0.01295   0.06788   0.07602
     Eigenvalues ---    0.15920   0.16000   0.16286   0.20128   0.25635
     Eigenvalues ---    0.28521   0.34522   0.37230   0.37263   0.37483
     Eigenvalues ---    0.46823   0.62231   0.908951000.000001000.00000
     Eigenvalues --- 1000.000001000.000001000.000001000.000001000.00000
 RFO step:  Lambda=-4.48493923D-04.
 Quartic linear search produced a step of -0.21142.
 Iteration  1 RMS(Cart)=  0.01119325 RMS(Int)=  0.00005021
 Iteration  2 RMS(Cart)=  0.00004907 RMS(Int)=  0.00000724
 Iteration  3 RMS(Cart)=  0.00000000 RMS(Int)=  0.00000724
 Variable       Old X    -DE/DX   Delta X   Delta X   Delta X     New X
                                 (Linear)    (Quad)   (Total)
    R1        2.22705   0.01545   0.00711   0.00549   0.01260   2.23965
    R2        2.82181   0.00284   0.00659  -0.00206   0.00453   2.82634
    R3        2.68700   0.01230   0.00098   0.02091   0.02190   2.70890
    R4        2.06049  -0.00061  -0.00181   0.00122  -0.00059   2.05990
    R5        2.05275  -0.00285  -0.00187  -0.00312  -0.00499   2.04776
    R6        2.06048  -0.00059  -0.00180   0.00123  -0.00056   2.05991
    R7        2.49518   0.00009   0.00121  -0.00160  -0.00038   2.49480
    A1        2.22608  -0.00152  -0.01304   0.01469   0.00164   2.22773
    A2        1.98900   0.00227   0.00122   0.00524   0.00645   1.99545
    A3        2.06810  -0.00075   0.01182  -0.01992  -0.00811   2.05999
    A4        1.86779   0.00177   0.00021   0.00749   0.00770   1.87549
    A5        1.98663  -0.00118  -0.00075  -0.00341  -0.00415   1.98247
    A6        1.86665   0.00191   0.00029   0.00810   0.00839   1.87504
    A7        1.92458  -0.00030  -0.00099   0.00096  -0.00002   1.92456
    A8        1.88912  -0.00179   0.00252  -0.01447  -0.01196   1.87716
    A9        1.92538  -0.00036  -0.00105   0.00088  -0.00016   1.92521
   A10        2.01272   0.00625   0.01048   0.00243   0.01291   2.02563
    D1        1.01084  -0.00006   0.00207   0.00334   0.00543   1.01626
    D2       -3.14152   0.00007   0.00050   0.00773   0.00823  -3.13329
    D3       -1.01051   0.00022  -0.00109   0.01244   0.01135  -0.99916
    D4       -2.12864  -0.00019   0.00096  -0.00393  -0.00297  -2.13161
    D5        0.00218  -0.00006  -0.00061   0.00045  -0.00016   0.00202
    D6        2.13320   0.00009  -0.00220   0.00516   0.00295   2.13615
    D7       -3.13229  -0.00011   0.00160  -0.01663  -0.01501   3.13588
    D8        0.00747   0.00000   0.00259  -0.01030  -0.00772  -0.00025
         Item               Value     Threshold  Converged?
 Maximum Force            0.015454     0.000450     NO 
 RMS     Force            0.004317     0.000300     NO 
 Maximum Displacement     0.022870     0.001800     NO 
 RMS     Displacement     0.011183     0.001200     NO 
 Predicted change in Energy=-3.287847D-04
 GradGradGradGradGradGradGradGradGradGradGradGradGradGradGradGradGradGrad

                          Input orientation:                          
 ---------------------------------------------------------------------
 Center     Atomic     Atomic              Coordinates (Angstroms)
 Number     Number      Type              X           Y           Z
 ---------------------------------------------------------------------
    1          6             0        1.018783   -1.444652   -0.028230
    2          8             0        2.190093   -1.528301   -0.188450
    3          6             0        0.183682   -0.203877   -0.024814
    4          1             0        0.323645    0.287166   -0.987880
    5          1             0       -0.869045   -0.390223    0.152086
    6          1             0        0.584987    0.457732    0.742948
    7          8             0        0.361677   -2.699507    0.191849
    8          8             0       -0.943738   -2.645252    0.381184
 ---------------------------------------------------------------------
                    Distance matrix (angstroms):
                    1          2          3          4          5
     1  C    0.000000
     2  O    1.185173   0.000000
     3  C    1.495637   2.409681   0.000000
     4  H    2.098413   2.723717   1.090050   0.000000
     5  H    2.169846   3.281694   1.083629   1.783504   0.000000
     6  H    2.098085   2.718123   1.090060   1.758738   1.783915
     7  O    1.433486   2.204417   2.511332   3.211451   2.617069
     8  O    2.336782   3.375347   2.719599   3.475582   2.267868
                    6          7          8
     6  H    0.000000
     7  O    3.212745   0.000000
     8  O    3.477985   1.320190   0.000000
 Stoichiometry    C2H3O3(2)
 Framework group  C1[X(C2H3O3)]
 Deg. of freedom    18
 Full point group                 C1      NOp   1
 Largest Abelian subgroup         C1      NOp   1
 Largest concise Abelian subgroup C1      NOp   1
                         Standard orientation:                         
 ---------------------------------------------------------------------
 Center     Atomic     Atomic              Coordinates (Angstroms)
 Number     Number      Type              X           Y           Z
 ---------------------------------------------------------------------
    1          6             0       -0.532145   -0.151858    0.002127
    2          8             0       -1.407133   -0.951244   -0.001498
    3          6             0       -0.656642    1.338586   -0.000014
    4          1             0       -1.233961    1.619785    0.880803
    5          1             0        0.296905    1.853353   -0.003947
    6          1             0       -1.240079    1.616278   -0.877920
    7          8             0        0.784888   -0.717813    0.001429
    8          8             0        1.785978    0.142833   -0.001382
 ---------------------------------------------------------------------
 Rotational constants (GHZ):      9.2678621      4.7662095      3.2098491
 Standard basis: 6-311+G(3df,2p) (5D, 7F)
 There are   222 symmetry adapted basis functions of A   symmetry.
 Integral buffers will be    262144 words long.
 Raffenetti 2 integral format.
 Two-electron integral symmetry is turned on.
   222 basis functions,   323 primitive gaussians,   252 cartesian basis functions
    20 alpha electrons       19 beta electrons
       nuclear repulsion energy       170.9008390964 Hartrees.
 NAtoms=    8 NActive=    8 NUniq=    8 SFac= 1.00D+00 NAtFMM=   60 Big=F
 One-electron integrals computed using PRISM.
 NBasis=   222 RedAO= T  NBF=   222
 NBsUse=   222 1.00D-06 NBFU=   222
 Initial guess read from the read-write file:
 Initial guess orbital symmetries:
 Alpha Orbitals:
       Occupied  (A) (A) (A) (A) (A) (A) (A) (A) (A) (A) (A) (A)
                 (A) (A) (A) (A) (A) (A) (A) (A)
       Virtual   (A) (A) (A) (A) (A) (A) (A) (A) (A) (A) (A) (A)
                 (A) (A) (A) (A) (A) (A) (A) (A) (A) (A) (A) (A)
                 (A) (A) (A) (A) (A) (A) (A) (A) (A) (A) (A) (A)
                 (A) (A) (A) (A) (A) (A) (A) (A) (A) (A) (A) (A)
                 (A) (A) (A) (A) (A) (A) (A) (A) (A) (A) (A) (A)
                 (A) (A) (A) (A) (A) (A) (A) (A) (A) (A) (A) (A)
                 (A) (A) (A) (A) (A) (A) (A) (A) (A) (A) (A) (A)
                 (A) (A) (A) (A) (A) (A) (A) (A) (A) (A) (A) (A)
                 (A) (A) (A) (A) (A) (A) (A) (A) (A) (A) (A) (A)
                 (A) (A) (A) (A) (A) (A) (A) (A) (A) (A) (A) (A)
                 (A) (A) (A) (A) (A) (A) (A) (A) (A) (A) (A) (A)
                 (A) (A) (A) (A) (A) (A) (A) (A) (A) (A) (A) (A)
                 (A) (A) (A) (A) (A) (A) (A) (A) (A) (A) (A) (A)
                 (A) (A) (A) (A) (A) (A) (A) (A) (A) (A) (A) (A)
                 (A) (A) (A) (A) (A) (A) (A) (A) (A) (A) (A) (A)
                 (A) (A) (A) (A) (A) (A) (A) (A) (A) (A) (A) (A)
                 (A) (A) (A) (A) (A) (A) (A) (A) (A) (A)
 Beta  Orbitals:
       Occupied  (A) (A) (A) (A) (A) (A) (A) (A) (A) (A) (A) (A)
                 (A) (A) (A) (A) (A) (A) (A)
       Virtual   (A) (A) (A) (A) (A) (A) (A) (A) (A) (A) (A) (A)
                 (A) (A) (A) (A) (A) (A) (A) (A) (A) (A) (A) (A)
                 (A) (A) (A) (A) (A) (A) (A) (A) (A) (A) (A) (A)
                 (A) (A) (A) (A) (A) (A) (A) (A) (A) (A) (A) (A)
                 (A) (A) (A) (A) (A) (A) (A) (A) (A) (A) (A) (A)
                 (A) (A) (A) (A) (A) (A) (A) (A) (A) (A) (A) (A)
                 (A) (A) (A) (A) (A) (A) (A) (A) (A) (A) (A) (A)
                 (A) (A) (A) (A) (A) (A) (A) (A) (A) (A) (A) (A)
                 (A) (A) (A) (A) (A) (A) (A) (A) (A) (A) (A) (A)
                 (A) (A) (A) (A) (A) (A) (A) (A) (A) (A) (A) (A)
                 (A) (A) (A) (A) (A) (A) (A) (A) (A) (A) (A) (A)
                 (A) (A) (A) (A) (A) (A) (A) (A) (A) (A) (A) (A)
                 (A) (A) (A) (A) (A) (A) (A) (A) (A) (A) (A) (A)
                 (A) (A) (A) (A) (A) (A) (A) (A) (A) (A) (A) (A)
                 (A) (A) (A) (A) (A) (A) (A) (A) (A) (A) (A) (A)
                 (A) (A) (A) (A) (A) (A) (A) (A) (A) (A) (A) (A)
                 (A) (A) (A) (A) (A) (A) (A) (A) (A) (A) (A)
 <S**2> of initial guess= 0.7546
 Harris functional with IExCor=  402 diagonalized for initial guess.
 ExpMin= 4.38D-02 ExpMax= 8.59D+03 ExpMxC= 1.30D+03 IAcc=2 IRadAn=         4 AccDes= 0.00D+00
 HarFok:  IExCor= 402 AccDes= 0.00D+00 IRadAn=         4 IDoV=1
 ScaDFX=  1.000000  1.000000  1.000000  1.000000
 Requested convergence on RMS density matrix=1.00D-08 within1000 cycles.
 Requested convergence on MAX density matrix=1.00D-06.
 Requested convergence on             energy=1.00D-06.
 No special actions if energy rises.
 SCF Done:  E(UB+HF-LYP) =  -303.672929558     A.U. after   14 cycles
             Convg  =    0.6292D-08             -V/T =  2.0034
             S**2   =   0.7547
 Annihilation of the first spin contaminant:
 S**2 before annihilation     0.7547,   after     0.7500
 ***** Axes restored to original set *****
 -------------------------------------------------------------------
 Center     Atomic                   Forces (Hartrees/Bohr)
 Number     Number              X              Y              Z
 -------------------------------------------------------------------
    1          6           0.001560079    0.004597526    0.000087646
    2          8           0.000434374   -0.000377467   -0.000350666
    3          6          -0.000093433    0.000514650   -0.000226315
    4          1          -0.000234525    0.000230760    0.000407775
    5          1           0.000939007   -0.000317328   -0.000120848
    6          1          -0.000336409    0.000086178   -0.000400122
    7          8          -0.003909674   -0.004645354    0.000887129
    8          8           0.001640581   -0.000088966   -0.000284599
 -------------------------------------------------------------------
 Cartesian Forces:  Max     0.004645354 RMS     0.001662607

 GradGradGradGradGradGradGradGradGradGradGradGradGradGradGradGradGradGrad
 Berny optimization.
 Internal  Forces:  Max     0.005277623 RMS     0.001172341
 Search for a local minimum.
 Step number   4 out of a maximum of  35
 All quantities printed in internal units (Hartrees-Bohrs-Radians)
 Update second derivatives using D2CorX and points  1  2  3  4
 Trust test= 1.20D+00 RLast= 4.22D-02 DXMaxT set to 4.24D-01
     Eigenvalues ---    0.00237   0.00461   0.01289   0.06768   0.07542
     Eigenvalues ---    0.13491   0.16001   0.16078   0.19291   0.26672
     Eigenvalues ---    0.28924   0.31382   0.37181   0.37232   0.37360
     Eigenvalues ---    0.41676   0.62559   0.972231000.000001000.00000
     Eigenvalues --- 1000.000001000.000001000.000001000.000001000.00000
 RFO step:  Lambda=-1.60153842D-04.
 Quartic linear search produced a step of  0.27890.
 Iteration  1 RMS(Cart)=  0.01680229 RMS(Int)=  0.00046527
 Iteration  2 RMS(Cart)=  0.00045323 RMS(Int)=  0.00028149
 Iteration  3 RMS(Cart)=  0.00000007 RMS(Int)=  0.00028149
 Variable       Old X    -DE/DX   Delta X   Delta X   Delta X     New X
                                 (Linear)    (Quad)   (Total)
    R1        2.23965   0.00050   0.00351  -0.00281   0.00070   2.24036
    R2        2.82634   0.00027   0.00126  -0.00201  -0.00075   2.82559
    R3        2.70890   0.00528   0.00611   0.01771   0.02382   2.73272
    R4        2.05990  -0.00029  -0.00016   0.00001  -0.00015   2.05975
    R5        2.04776  -0.00088  -0.00139  -0.00236  -0.00375   2.04401
    R6        2.05991  -0.00035  -0.00016  -0.00023  -0.00039   2.05952
    R7        2.49480  -0.00166  -0.00011  -0.00408  -0.00418   2.49061
    A1        2.22773   0.00028   0.00046   0.00818   0.00784   2.23557
    A2        1.99545  -0.00043   0.00180  -0.00370  -0.00268   1.99277
    A3        2.05999   0.00014  -0.00226  -0.00409  -0.00714   2.05285
    A4        1.87549   0.00071   0.00215   0.00593   0.00807   1.88356
    A5        1.98247  -0.00094  -0.00116  -0.00733  -0.00847   1.97401
    A6        1.87504   0.00063   0.00234   0.00520   0.00753   1.88257
    A7        1.92456   0.00001  -0.00001   0.00034   0.00035   1.92492
    A8        1.87716  -0.00041  -0.00334  -0.00447  -0.00784   1.86932
    A9        1.92521   0.00005  -0.00005   0.00058   0.00055   1.92577
   A10        2.02563   0.00003   0.00360  -0.00208   0.00152   2.02715
    D1        1.01626  -0.00005   0.00151  -0.03586  -0.03437   0.98189
    D2       -3.13329  -0.00013   0.00230  -0.03593  -0.03368   3.11621
    D3       -0.99916  -0.00023   0.00316  -0.03621  -0.03312  -1.03228
    D4       -2.13161   0.00023  -0.00083   0.04497   0.04421  -2.08740
    D5        0.00202   0.00014  -0.00005   0.04490   0.04490   0.04692
    D6        2.13615   0.00004   0.00082   0.04461   0.04546   2.18162
    D7        3.13588   0.00017  -0.00419   0.03465   0.03024  -3.11706
    D8       -0.00025  -0.00007  -0.00215  -0.03564  -0.03758  -0.03783
         Item               Value     Threshold  Converged?
 Maximum Force            0.005278     0.000450     NO 
 RMS     Force            0.001172     0.000300     NO 
 Maximum Displacement     0.043800     0.001800     NO 
 RMS     Displacement     0.016868     0.001200     NO 
 Predicted change in Energy=-1.014773D-04
 GradGradGradGradGradGradGradGradGradGradGradGradGradGradGradGradGradGrad

                          Input orientation:                          
 ---------------------------------------------------------------------
 Center     Atomic     Atomic              Coordinates (Angstroms)
 Number     Number      Type              X           Y           Z
 ---------------------------------------------------------------------
    1          6             0        1.027200   -1.439147   -0.005052
    2          8             0        2.193439   -1.533349   -0.196181
    3          6             0        0.186947   -0.202424   -0.020283
    4          1             0        0.317757    0.280004   -0.988883
    5          1             0       -0.860886   -0.398969    0.162390
    6          1             0        0.581476    0.479096    0.733146
    7          8             0        0.353764   -2.704920    0.183313
    8          8             0       -0.949612   -2.647205    0.370244
 ---------------------------------------------------------------------
                    Distance matrix (angstroms):
                    1          2          3          4          5
     1  C    0.000000
     2  O    1.185545   0.000000
     3  C    1.495240   2.414190   0.000000
     4  H    2.103976   2.726684   1.089970   0.000000
     5  H    2.162146   3.277849   1.081644   1.782032   0.000000
     6  H    2.103156   2.740805   1.089852   1.753445   1.782462
     7  O    1.446091   2.213820   2.516300   3.207042   2.606381
     8  O    2.346920   3.382348   2.724194   3.467276   2.259566
                    6          7          8
     6  H    0.000000
     7  O    3.239156   0.000000
     8  O    3.499955   1.317976   0.000000
 Stoichiometry    C2H3O3(2)
 Framework group  C1[X(C2H3O3)]
 Deg. of freedom    18
 Full point group                 C1      NOp   1
 Largest Abelian subgroup         C1      NOp   1
 Largest concise Abelian subgroup C1      NOp   1
                         Standard orientation:                         
 ---------------------------------------------------------------------
 Center     Atomic     Atomic              Coordinates (Angstroms)
 Number     Number      Type              X           Y           Z
 ---------------------------------------------------------------------
    1          6             0       -0.539156   -0.150902   -0.022106
    2          8             0       -1.409881   -0.954967    0.006757
    3          6             0       -0.658609    1.339349    0.002906
    4          1             0       -1.220005    1.615871    0.895321
    5          1             0        0.299010    1.842129   -0.008580
    6          1             0       -1.255360    1.641386   -0.857582
    7          8             0        0.791146   -0.717343    0.002850
    8          8             0        1.789104    0.143551    0.001148
 ---------------------------------------------------------------------
 Rotational constants (GHZ):      9.2426238      4.7400290      3.1948276
 Standard basis: 6-311+G(3df,2p) (5D, 7F)
 There are   222 symmetry adapted basis functions of A   symmetry.
 Integral buffers will be    262144 words long.
 Raffenetti 2 integral format.
 Two-electron integral symmetry is turned on.
   222 basis functions,   323 primitive gaussians,   252 cartesian basis functions
    20 alpha electrons       19 beta electrons
       nuclear repulsion energy       170.5896085538 Hartrees.
 NAtoms=    8 NActive=    8 NUniq=    8 SFac= 1.00D+00 NAtFMM=   60 Big=F
 One-electron integrals computed using PRISM.
 NBasis=   222 RedAO= T  NBF=   222
 NBsUse=   222 1.00D-06 NBFU=   222
 Initial guess read from the read-write file:
 Initial guess orbital symmetries:
 Alpha Orbitals:
       Occupied  (A) (A) (A) (A) (A) (A) (A) (A) (A) (A) (A) (A)
                 (A) (A) (A) (A) (A) (A) (A) (A)
       Virtual   (A) (A) (A) (A) (A) (A) (A) (A) (A) (A) (A) (A)
                 (A) (A) (A) (A) (A) (A) (A) (A) (A) (A) (A) (A)
                 (A) (A) (A) (A) (A) (A) (A) (A) (A) (A) (A) (A)
                 (A) (A) (A) (A) (A) (A) (A) (A) (A) (A) (A) (A)
                 (A) (A) (A) (A) (A) (A) (A) (A) (A) (A) (A) (A)
                 (A) (A) (A) (A) (A) (A) (A) (A) (A) (A) (A) (A)
                 (A) (A) (A) (A) (A) (A) (A) (A) (A) (A) (A) (A)
                 (A) (A) (A) (A) (A) (A) (A) (A) (A) (A) (A) (A)
                 (A) (A) (A) (A) (A) (A) (A) (A) (A) (A) (A) (A)
                 (A) (A) (A) (A) (A) (A) (A) (A) (A) (A) (A) (A)
                 (A) (A) (A) (A) (A) (A) (A) (A) (A) (A) (A) (A)
                 (A) (A) (A) (A) (A) (A) (A) (A) (A) (A) (A) (A)
                 (A) (A) (A) (A) (A) (A) (A) (A) (A) (A) (A) (A)
                 (A) (A) (A) (A) (A) (A) (A) (A) (A) (A) (A) (A)
                 (A) (A) (A) (A) (A) (A) (A) (A) (A) (A) (A) (A)
                 (A) (A) (A) (A) (A) (A) (A) (A) (A) (A) (A) (A)
                 (A) (A) (A) (A) (A) (A) (A) (A) (A) (A)
 Beta  Orbitals:
       Occupied  (A) (A) (A) (A) (A) (A) (A) (A) (A) (A) (A) (A)
                 (A) (A) (A) (A) (A) (A) (A)
       Virtual   (A) (A) (A) (A) (A) (A) (A) (A) (A) (A) (A) (A)
                 (A) (A) (A) (A) (A) (A) (A) (A) (A) (A) (A) (A)
                 (A) (A) (A) (A) (A) (A) (A) (A) (A) (A) (A) (A)
                 (A) (A) (A) (A) (A) (A) (A) (A) (A) (A) (A) (A)
                 (A) (A) (A) (A) (A) (A) (A) (A) (A) (A) (A) (A)
                 (A) (A) (A) (A) (A) (A) (A) (A) (A) (A) (A) (A)
                 (A) (A) (A) (A) (A) (A) (A) (A) (A) (A) (A) (A)
                 (A) (A) (A) (A) (A) (A) (A) (A) (A) (A) (A) (A)
                 (A) (A) (A) (A) (A) (A) (A) (A) (A) (A) (A) (A)
                 (A) (A) (A) (A) (A) (A) (A) (A) (A) (A) (A) (A)
                 (A) (A) (A) (A) (A) (A) (A) (A) (A) (A) (A) (A)
                 (A) (A) (A) (A) (A) (A) (A) (A) (A) (A) (A) (A)
                 (A) (A) (A) (A) (A) (A) (A) (A) (A) (A) (A) (A)
                 (A) (A) (A) (A) (A) (A) (A) (A) (A) (A) (A) (A)
                 (A) (A) (A) (A) (A) (A) (A) (A) (A) (A) (A) (A)
                 (A) (A) (A) (A) (A) (A) (A) (A) (A) (A) (A) (A)
                 (A) (A) (A) (A) (A) (A) (A) (A) (A) (A) (A)
 <S**2> of initial guess= 0.7547
 Harris functional with IExCor=  402 diagonalized for initial guess.
 ExpMin= 4.38D-02 ExpMax= 8.59D+03 ExpMxC= 1.30D+03 IAcc=2 IRadAn=         4 AccDes= 0.00D+00
 HarFok:  IExCor= 402 AccDes= 0.00D+00 IRadAn=         4 IDoV=1
 ScaDFX=  1.000000  1.000000  1.000000  1.000000
 Requested convergence on RMS density matrix=1.00D-08 within1000 cycles.
 Requested convergence on MAX density matrix=1.00D-06.
 Requested convergence on             energy=1.00D-06.
 No special actions if energy rises.
 SCF Done:  E(UB+HF-LYP) =  -303.672833408     A.U. after   14 cycles
             Convg  =    0.8238D-08             -V/T =  2.0035
             S**2   =   0.7546
 Annihilation of the first spin contaminant:
 S**2 before annihilation     0.7546,   after     0.7500
 ***** Axes restored to original set *****
 -------------------------------------------------------------------
 Center     Atomic                   Forces (Hartrees/Bohr)
 Number     Number              X              Y              Z
 -------------------------------------------------------------------
    1          6           0.001030769    0.001012647   -0.008445228
    2          8          -0.001862233    0.000146297    0.003550156
    3          6           0.001249002    0.001186115    0.002548908
    4          1           0.000154177   -0.000961339   -0.000115913
    5          1          -0.000527121   -0.000136720    0.000261363
    6          1          -0.000316489   -0.000104105    0.000165218
    7          8          -0.000914613   -0.001425999    0.002021478
    8          8           0.001186509    0.000283103    0.000014018
 -------------------------------------------------------------------
 Cartesian Forces:  Max     0.008445228 RMS     0.002129902

 GradGradGradGradGradGradGradGradGradGradGradGradGradGradGradGradGradGrad
 Berny optimization.
 Internal  Forces:  Max     0.002416065 RMS     0.001044427
 Search for a local minimum.
 Step number   5 out of a maximum of  35
 All quantities printed in internal units (Hartrees-Bohrs-Radians)
 Update second derivatives using D2CorX and points  1  2  3  5  4

[...]
 Atom AN      X      Y      Z        X      Y      Z        X      Y      Z
   1   6    -0.18   0.17   0.00     0.22  -0.28   0.00     0.02  -0.02   0.00
   2   8     0.02  -0.02   0.00    -0.10   0.02   0.00    -0.01   0.00   0.00
   3   6     0.16  -0.08   0.00    -0.11   0.09   0.00     0.00   0.15   0.00
   4   1    -0.26   0.17   0.13     0.21   0.04  -0.15     0.06  -0.55   0.26
   5   1    -0.26   0.17  -0.13     0.21   0.04   0.15     0.06  -0.55  -0.26
   6   1    -0.08  -0.78   0.00     0.08   0.64   0.00    -0.19  -0.45   0.00
   7   8     0.16   0.09   0.00     0.25   0.32   0.00     0.00   0.01   0.00
   8   8    -0.12  -0.10   0.00    -0.26  -0.24   0.00     0.00   0.00   0.00
                    13                     14                     15
                     A                      A                      A
 Frequencies --  1463.1799              1467.7251              1893.8762
 Red. masses --     1.0445                 1.0455                12.2254
 Frc consts  --     1.3175                 1.3269                25.8355
 IR Inten    --    11.1108                 9.5610               250.8392
 Atom AN      X      Y      Z        X      Y      Z        X      Y      Z
   1   6    -0.01   0.02   0.00     0.00   0.00   0.02     0.54   0.59   0.00
   2   8    -0.01  -0.02   0.00     0.00   0.00   0.00    -0.40  -0.34   0.00
   3   6    -0.05   0.02   0.00     0.00   0.00   0.05    -0.02  -0.07   0.00
   4   1     0.48   0.13  -0.35     0.38  -0.30  -0.06    -0.07  -0.11   0.07
   5   1     0.49   0.13   0.35    -0.37   0.30  -0.05    -0.07  -0.11  -0.07
   6   1    -0.18  -0.45   0.00     0.00   0.00  -0.73     0.08   0.17   0.00
   7   8     0.00   0.00   0.00     0.00   0.00   0.00     0.04  -0.05   0.00
   8   8     0.00   0.00   0.00     0.00   0.00   0.00    -0.03   0.00   0.00
                    16                     17                     18
                     A                      A                      A
 Frequencies --  3059.8972              3120.2416              3160.5853
 Red. masses --     1.0350                 1.0988                 1.1048
 Frc consts  --     5.7093                 6.3031                 6.5025
 IR Inten    --     0.3814                 0.2624                 1.6944
 Atom AN      X      Y      Z        X      Y      Z        X      Y      Z
   1   6     0.00   0.00   0.00     0.00   0.00   0.00     0.00   0.00   0.00
   2   8     0.00   0.00   0.00     0.00   0.00   0.00     0.00   0.00   0.00
   3   6    -0.01  -0.05   0.00     0.00   0.00   0.09    -0.09   0.00   0.00
   4   1     0.30   0.21   0.50    -0.35  -0.25  -0.56     0.14   0.12   0.27
   5   1     0.30   0.21  -0.50     0.35   0.25  -0.56     0.14   0.12  -0.27
   6   1    -0.45   0.14   0.00     0.00   0.00   0.02     0.84  -0.27   0.00
   7   8     0.00   0.00   0.00     0.00   0.00   0.00     0.00   0.00   0.00
   8   8     0.00   0.00   0.00     0.00   0.00   0.00     0.00   0.00   0.00

 -------------------
 - Thermochemistry -
 -------------------
 Temperature   298.150 Kelvin.  Pressure   1.00000 Atm.
 Atom  1 has atomic number  6 and mass  12.00000
 Atom  2 has atomic number  8 and mass  15.99491
 Atom  3 has atomic number  6 and mass  12.00000
 Atom  4 has atomic number  1 and mass   1.00783
 Atom  5 has atomic number  1 and mass   1.00783
 Atom  6 has atomic number  1 and mass   1.00783
 Atom  7 has atomic number  8 and mass  15.99491
 Atom  8 has atomic number  8 and mass  15.99491
 Molecular mass:    75.00822 amu.
 Principal axes and moments of inertia in atomic units:
                           1         2         3
     EIGENVALUES --   193.88349 373.86171 556.72897
           X            0.99836  -0.05719   0.00000
           Y            0.05719   0.99836   0.00000
           Z            0.00000   0.00000   1.00000
 This molecule is an asymmetric top.
 Rotational symmetry number  1.
 Rotational temperatures (Kelvin)      0.44673     0.23167     0.15558
 Rotational constants (GHZ):           9.30838     4.82730     3.24169
 Zero-point vibrational energy     136898.8 (Joules/Mol)
                                   32.71960 (Kcal/Mol)
 Warning -- explicit consideration of   6 degrees of freedom as
           vibrations may cause significant error
 Vibrational temperatures:    199.95   239.76   467.56   729.14   780.79
          (Kelvin)            791.45  1055.60  1413.34  1507.55  1626.50
                             1719.77  2017.85  2105.19  2111.73  2724.86
                             4402.50  4489.33  4547.37
 
 Zero-point correction=                           0.052142 (Hartree/Particle)
 Thermal correction to Energy=                    0.057474
 Thermal correction to Enthalpy=                  0.058418
 Thermal correction to Gibbs Free Energy=         0.023090
 Sum of electronic and zero-point Energies=           -303.622893
 Sum of electronic and thermal Energies=              -303.617561
 Sum of electronic and thermal Enthalpies=            -303.616617
 Sum of electronic and thermal Free Energies=         -303.651945
 
                     E (Thermal)             CV                S
                      KCal/Mol        Cal/Mol-Kelvin    Cal/Mol-Kelvin
 Total                   36.065             17.161             74.354
 Electronic               0.000              0.000              1.377
 Translational            0.889              2.981             38.861
 Rotational               0.889              2.981             25.204
 Vibrational             34.288             11.199              8.911
 Vibration  1             0.615              1.914              2.818
 Vibration  2             0.624              1.883              2.473
 Vibration  3             0.709              1.626              1.285
 Vibration  4             0.862              1.235              0.641
 Vibration  5             0.898              1.156              0.560
 Vibration  6             0.905              1.140              0.544
                       Q            Log10(Q)             Ln(Q)
 Total Bot       0.239496D-10        -10.620701        -24.455068
 Total V=0       0.230623D+14         13.362903         30.769221
 Vib (Bot)       0.652163D-23        -23.185644        -53.386917
 Vib (Bot)  1    0.146354D+01          0.165404          0.380857
 Vib (Bot)  2    0.121065D+01          0.083017          0.191154
 Vib (Bot)  3    0.576725D+00         -0.239032         -0.550390
 Vib (Bot)  4    0.322352D+00         -0.491670         -1.132111
 Vib (Bot)  5    0.291214D+00         -0.535788         -1.233697
 Vib (Bot)  6    0.285265D+00         -0.544752         -1.254337
 Vib (V=0)       0.628001D+01          0.797960          1.837371
 Vib (V=0)  1    0.204659D+01          0.311031          0.716175
 Vib (V=0)  2    0.180983D+01          0.257639          0.593235
 Vib (V=0)  3    0.126329D+01          0.101503          0.233719
 Vib (V=0)  4    0.109490D+01          0.039376          0.090667
 Vib (V=0)  5    0.107862D+01          0.032870          0.075686
 Vib (V=0)  6    0.107565D+01          0.031672          0.072928
 Electronic      0.200000D+01          0.301030          0.693147
 Translational   0.255340D+08          7.407118         17.055521
 Rotational      0.719108D+05          4.856794         11.183182
 ***** Axes restored to original set *****
 -------------------------------------------------------------------
 Center     Atomic                   Forces (Hartrees/Bohr)
 Number     Number              X              Y              Z
 -------------------------------------------------------------------
    1          6           0.000007977   -0.000012239    0.000003521
    2          8          -0.000002137   -0.000002535   -0.000001778
    3          6          -0.000006755    0.000006933   -0.000004205
    4          1          -0.000001574   -0.000003731    0.000000630
    5          1          -0.000004172    0.000002209    0.000000884
    6          1           0.000004289   -0.000010241    0.000001955
    7          8          -0.000015042    0.000006658   -0.000005083
    8          8           0.000017414    0.000012946    0.000004076
 -------------------------------------------------------------------
 Cartesian Forces:  Max     0.000017414 RMS     0.000007366

 GradGradGradGradGradGradGradGradGradGradGradGradGradGradGradGradGradGrad
 Berny optimization.
 Internal  Forces:  Max     0.000031178 RMS     0.000010704
 Search for a local minimum.
 Step number   1 out of a maximum of   2
 All quantities printed in internal units (Hartrees-Bohrs-Radians)
 Second derivative matrix not updated -- analytic derivatives used.
     Eigenvalues ---    0.00164   0.00998   0.03846   0.05306   0.05403
     Eigenvalues ---    0.12023   0.12455   0.13443   0.14916   0.24155
     Eigenvalues ---    0.25562   0.32528   0.33981   0.34393   0.35117
     Eigenvalues ---    0.37991   0.47357   0.947031000.000001000.00000
     Eigenvalues --- 1000.000001000.000001000.000001000.000001000.00000
 Angle between quadratic step and forces=  67.56 degrees.
 Linear search not attempted -- first point.
 Iteration  1 RMS(Cart)=  0.00010504 RMS(Int)=  0.00000001
 Iteration  2 RMS(Cart)=  0.00000001 RMS(Int)=  0.00000000
 Variable       Old X    -DE/DX   Delta X   Delta X   Delta X     New X
                                 (Linear)    (Quad)   (Total)
    R1        2.23743   0.00000   0.00000   0.00000   0.00000   2.23743
    R2        2.82011   0.00000   0.00000   0.00003   0.00003   2.82014
    R3        2.73076  -0.00002   0.00000  -0.00005  -0.00005   2.73071
    R4        2.05770   0.00000   0.00000   0.00000   0.00000   2.05770
    R5        2.05769   0.00000   0.00000   0.00001   0.00001   2.05770
    R6        2.05077  -0.00001   0.00000  -0.00002  -0.00002   2.05076
    R7        2.49057  -0.00002   0.00000  -0.00004  -0.00004   2.49053
    A1        2.25537   0.00001   0.00000   0.00002   0.00002   2.25539
    A2        2.00389   0.00001   0.00000   0.00005   0.00005   2.00393
    A3        2.02393  -0.00002   0.00000  -0.00007  -0.00007   2.02386
    A4        1.92806   0.00000   0.00000  -0.00003  -0.00003   1.92803
    A5        1.92799   0.00001   0.00000   0.00003   0.00003   1.92803
    A6        1.88412  -0.00001   0.00000  -0.00006  -0.00006   1.88406
    A7        1.86585   0.00000   0.00000  -0.00002  -0.00002   1.86583
    A8        1.92915   0.00001   0.00000   0.00007   0.00007   1.92922
    A9        1.92920   0.00000   0.00000   0.00002   0.00002   1.92922
   A10        1.99789  -0.00003   0.00000  -0.00007  -0.00007   1.99782
    D1        2.11110   0.00000   0.00000   0.00012   0.00012   2.11122
    D2       -2.11131   0.00000   0.00000   0.00009   0.00009  -2.11121
    D3       -0.00009   0.00000   0.00000   0.00009   0.00009   0.00000
    D4       -1.03056   0.00000   0.00000   0.00018   0.00018  -1.03038
    D5        1.03022   0.00000   0.00000   0.00016   0.00016   1.03038
    D6        3.14143   0.00000   0.00000   0.00016   0.00016  -3.14159
    D7       -3.14149   0.00000   0.00000  -0.00010  -0.00010   3.14159
    D8        0.00016   0.00000   0.00000  -0.00016  -0.00016   0.00000
         Item               Value     Threshold  Converged?
 Maximum Force            0.000031     0.000450     YES
 RMS     Force            0.000011     0.000300     YES
 Maximum Displacement     0.000315     0.001800     YES
 RMS     Displacement     0.000105     0.001200     YES
 Predicted change in Energy=-4.329752D-09
 Optimization completed.
    -- Stationary point found.
                           ----------------------------
                           !   Optimized Parameters   !
                           ! (Angstroms and Degrees)  !
 --------------------------                            --------------------------
 ! Name  Definition              Value          Derivative Info.                !
 --------------------------------------------------------------------------------
 ! R1    R(1,2)                  1.184          -DE/DX =    0.0                 !
 ! R2    R(1,3)                  1.4923         -DE/DX =    0.0                 !
 ! R3    R(1,7)                  1.4451         -DE/DX =    0.0                 !
 ! R4    R(3,4)                  1.0889         -DE/DX =    0.0                 !
 ! R5    R(3,5)                  1.0889         -DE/DX =    0.0                 !
 ! R6    R(3,6)                  1.0852         -DE/DX =    0.0                 !
 ! R7    R(7,8)                  1.318          -DE/DX =    0.0                 !
 ! A1    A(2,1,3)              129.2233         -DE/DX =    0.0                 !
 ! A2    A(2,1,7)              114.8142         -DE/DX =    0.0                 !
 ! A3    A(3,1,7)              115.9625         -DE/DX =    0.0                 !
 ! A4    A(1,3,4)              110.4695         -DE/DX =    0.0                 !
 ! A5    A(1,3,5)              110.4658         -DE/DX =    0.0                 !
 ! A6    A(1,3,6)              107.9523         -DE/DX =    0.0                 !
 ! A7    A(4,3,5)              106.9053         -DE/DX =    0.0                 !
 ! A8    A(4,3,6)              110.5323         -DE/DX =    0.0                 !
 ! A9    A(5,3,6)              110.5351         -DE/DX =    0.0                 !
 ! A10   A(1,7,8)              114.4707         -DE/DX =    0.0                 !
 ! D1    D(2,1,3,4)            120.9572         -DE/DX =    0.0                 !
 ! D2    D(2,1,3,5)           -120.9689         -DE/DX =    0.0                 !
 ! D3    D(2,1,3,6)             -0.0052         -DE/DX =    0.0                 !
 ! D4    D(7,1,3,4)            -59.0467         -DE/DX =    0.0                 !
 ! D5    D(7,1,3,5)             59.0272         -DE/DX =    0.0                 !
 ! D6    D(7,1,3,6)           -180.0091         -DE/DX =    0.0                 !
 ! D7    D(2,1,7,8)            180.0058         -DE/DX =    0.0                 !
 ! D8    D(3,1,7,8)              0.0091         -DE/DX =    0.0                 !
 --------------------------------------------------------------------------------
 GradGradGradGradGradGradGradGradGradGradGradGradGradGradGradGradGradGrad

 1\1\GINC-COMP04\Freq\UB3LYP\6-311+G(3df,2p)\C2H3O3(2)\CHMDRGL\21-Oct-2
 005\0\\#N GEOM=ALLCHECK GUESS=READ SCRF=CHECK GENCHK UB3LYP/6-311+G(3D
 F,2P) FREQ\\acetyl radical, O2 adduct, not constrained to have Cs symm
 etry\\0,2\C,0.5211172402,0.2069888527,0.0974996578\O,1.6845719097,0.11
 38068074,0.2963571626\C,-0.3230750129,1.4331188251,-0.0074673977\H,-0.
 812225523,1.4766079612,-0.97933079\H,-1.1114807633,1.4179705309,0.7434
 331719\H,0.3205193481,2.2954304053,0.1336486233\O,-0.1691178941,-1.052
 1193563,-0.0649975869\O,-1.4635873188,-0.9405193216,-0.2861026464\\Ver
 sion=x86-Linux-G03RevB.05\State=2-A\HF=-303.6750348\S2=0.754644\S2-1=0
 .\S2A=0.750017\RMSD=1.017e-09\RMSF=7.366e-06\Dipole=-0.4875132,0.97744
 53,-0.0514877\DipoleDeriv=1.5773076,0.1181972,0.2159799,0.3458443,1.39
 24384,0.0952093,0.2236896,0.055641,0.3970775,-1.1367464,-0.0631282,-0.
 1443058,0.0263417,-0.5620497,-0.0037183,-0.1412837,-0.0192387,-0.34311
 57,-0.1593215,0.1921284,-0.0256295,0.1218225,-0.1861528,0.0139688,-0.0
 280131,0.0261926,0.0218674,0.0913228,0.004302,-0.0332498,0.0145063,0.0
 633039,-0.0253012,-0.0354543,-0.003665,0.0078106,0.059959,-0.0006282,0
 .0516773,0.0015218,0.0609939,0.0307577,0.0543072,0.006962,0.0414732,0.
 041192,-0.0603027,-0.0117119,-0.0418852,-0.0017289,-0.0106262,-0.01108
 06,-0.0138332,0.0944103,-0.6060192,-0.0959178,-0.0935325,-0.4360322,-0
 .5788708,-0.0924428,-0.1050353,-0.0333328,-0.1055474,0.1323057,-0.0946
 507,0.0407724,-0.0321193,-0.187934,-0.0078473,0.0428702,-0.0187259,-0.
 1139759\Polar=49.3922385,2.741124,38.4227563,3.9563155,0.8583767,27.86
 27598\PG=C01 [X(C2H3O3)]\NImag=0\\0.98992609,-0.18141088,0.43237586,0.
 13084896,-0.02365539,0.22285384,-0.78471897,0.10184781,-0.12100363,0.8
 9832900,0.07695629,-0.11191816,0.01187318,-0.05821959,0.10304359,-0.12
 184855,0.01619585,-0.08855443,0.14928820,-0.00753673,0.05283103,-0.105
 32403,0.04840382,-0.00123094,-0.03792849,0.03543944,-0.01012239,0.5553
 9236,0.04944804,-0.16633480,0.00595667,0.01123412,0.00436650,0.0011708
 3,0.06447862,0.51757640,-0.00119233,0.00576949,-0.08879894,-0.01094410
 ,0.00537564,0.02557315,0.00680574,0.01080563,0.53032778,-0.01274847,0.
 00089085,-0.01818984,-0.00111118,0.00350747,0.00254547,-0.09364708,0.0
 0400466,-0.11191344,0.10425086,0.00962091,0.00387177,0.02933030,0.0035
 4899,-0.00352665,-0.00337174,0.00540257,-0.04849243,0.01060687,-0.0074
 5301,0.04748233,-0.00228498,0.00095173,-0.00060678,0.00237197,-0.00033
 208,-0.00039954,-0.10977704,0.00963366,-0.25745490,0.11988039,-0.01029
 769,0.27991585,-0.01809449,0.00009673,0.01232892,0.00046649,0.00337870
 ,-0.00204484,-0.18272414,-0.00369555,0.13886142,0.01084804,-0.00077538
 ,-0.01026646,0.20046455,0.01890386,0.00573859,-0.02415545,0.00238368,-
 0.00384169,0.00422640,-0.00191570,-0.04801761,0.00139724,-0.00217312,-
 0.00005032,0.00139507,0.00108295,0.04713738,-0.00263999,-0.00055804,0.
 00286952,-0.00190355,0.00135132,-0.00166289,0.13683348,0.00181589,-0.1
 6886613,0.02142940,-0.00044285,-0.02058627,-0.14872066,-0.00356466,0.1
 8406124,0.01092980,0.01713335,0.00290698,0.00104326,-0.00056779,0.0002
 7461,-0.14649074,-0.13392576,-0.02157225,-0.00748892,-0.00956225,0.000
 31399,-0.01132854,-0.01673257,-0.00506566,0.15570792,-0.01889410,-0.02
 443666,-0.00402985,-0.00022533,0.00418478,0.00012560,-0.12775369,-0.22
 004430,-0.02802525,0.00254593,0.00319847,-0.00042194,0.00133901,0.0017
 0539,0.00114876,0.13988385,0.23987173,0.00168047,0.00222904,-0.0020802
 6,0.00028689,0.00006571,-0.00059832,-0.02136248,-0.02909763,-0.0532111
 5,-0.01514431,-0.02333670,-0.00137811,0.01141895,0.01882073,0.00395733
 ,0.02384616,0.03089729,0.05100922,-0.02808751,0.03054421,0.00336794,-0
 .07033469,-0.05221214,-0.01616878,0.00619443,0.00592688,-0.00138382,-0
 .00129493,-0.00011740,-0.00019539,-0.00097663,-0.00103685,-0.00016045,
 -0.00140517,0.00093790,-0.00051726,0.45430324,0.08185981,-0.16111161,0
 .01016921,-0.05263355,0.01589483,-0.00902925,-0.02373748,-0.03432369,-
 0.00580453,-0.00071627,-0.00079318,0.00083437,-0.00032477,-0.00090792,
 -0.00105754,0.00633148,-0.00581383,0.00084284,-0.04378488,0.25098839,0
 .00510614,0.00125856,-0.04060654,-0.01618295,-0.00895528,0.00948595,-0
 .00238690,-0.00065469,0.01488197,0.00074075,-0.00276735,-0.00015776,-0
 .00109351,0.00252346,-0.00036040,-0.00033496,-0.00009398,0.00169570,0.
 07465026,0.00034918,0.02901794,-0.05188243,-0.01750591,-0.00902837,-0.
 00574543,-0.00828239,-0.00192372,0.00452769,0.00252900,0.00133877,0.00
 119168,-0.00066443,-0.00004248,0.00134470,-0.00051225,0.00022744,-0.00
 096762,0.00216644,-0.00020842,-0.35839875,0.03300565,-0.06049883,0.409
 93016,-0.03648394,0.02181502,-0.00548866,-0.00793614,-0.00820319,-0.00
 178096,-0.00031758,-0.00473007,-0.00012510,-0.00060651,-0.00168999,-0.
 00176312,-0.00110168,-0.00176382,0.00130711,-0.00256033,0.00133442,-0.
 00042129,0.05974228,-0.06393299,0.00834010,-0.01073611,0.05717063,-0.0
 0966972,-0.00219125,-0.00507641,-0.00191283,-0.00184177,0.00332504,0.0
 0124054,0.00036964,-0.00245178,0.00065158,0.00027916,0.00066750,-0.000
 48382,-0.00064278,0.00058760,-0.00036888,0.00039936,0.00060559,-0.0595
 9249,0.00369572,-0.01395686,0.07013561,-0.00006807,0.01629932\\-0.0000
 0798,0.00001224,-0.00000352,0.00000214,0.00000253,0.00000178,0.0000067
 5,-0.00000693,0.00000420,0.00000157,0.00000373,-0.00000063,0.00000417,
 -0.00000221,-0.00000088,-0.00000429,0.00001024,-0.00000195,0.00001504,
 -0.00000666,0.00000508,-0.00001741,-0.00001295,-0.00000408\\\@


 FORGIVE MY NONSENSE AS I ALSO FORGIVE THOSE WHO THINK THEY TALK SENSE

                                                       -- ROBERT FROST
 Job cpu time:  0 days  2 hours 17 minutes 58.4 seconds.
 File lengths (MBytes):  RWF=     78 Int=      0 D2E=      0 Chk=      7 Scr=      1
 Normal termination of Gaussian 03 at Fri Oct 21 05:17:29 2005.
