 Entering Gaussian System, Link 0=g03
 Input=peroxide_isomer_opt.gjf
 Output=peroxide_isomer_opt.log
 Initial command:
 /usr/local/g03/l1.exe /work/Gau-31712.inp -scrdir=/work/
 Entering Link 1 = /usr/local/g03/l1.exe PID=     31713.
  
 Copyright (c) 1988,1990,1992,1993,1995,1998,2003, Gaussian, Inc.
                  All Rights Reserved.
  
 This is the Gaussian(R) 03 program.  It is based on the
 the Gaussian(R) 98 system (copyright 1998, Gaussian, Inc.),
 the Gaussian(R) 94 system (copyright 1995, Gaussian, Inc.),
 the Gaussian 92(TM) system (copyright 1992, Gaussian, Inc.),
 the Gaussian 90(TM) system (copyright 1990, Gaussian, Inc.),
 the Gaussian 88(TM) system (copyright 1988, Gaussian, Inc.),
 the Gaussian 86(TM) system (copyright 1986, Carnegie Mellon
 University), and the Gaussian 82(TM) system (copyright 1983,
 Carnegie Mellon University). Gaussian is a federally registered
 trademark of Gaussian, Inc.
  
 This software contains proprietary and confidential information,
 including trade secrets, belonging to Gaussian, Inc.
  
 This software is provided under written license and may be
 used, copied, transmitted, or stored only in accord with that
 written license.
  
 The following legend is applicable only to US Government
 contracts under DFARS:
  
                    RESTRICTED RIGHTS LEGEND
  
 Use, duplication or disclosure by the US Government is subject
 to restrictions as set forth in subparagraph (c)(1)(ii) of the
 Rights in Technical Data and Computer Software clause at DFARS
 252.227-7013.
  
 Gaussian, Inc.
 Carnegie Office Park, Building 6, Pittsburgh, PA 15106 USA
  
 The following legend is applicable only to US Government
 contracts under FAR:
  
                    RESTRICTED RIGHTS LEGEND
  
 Use, reproduction and disclosure by the US Government is subject
 to restrictions as set forth in subparagraph (c) of the
 Commercial Computer Software - Restricted Rights clause at FAR
 52.227-19.
  
 Gaussian, Inc.
 Carnegie Office Park, Building 6, Pittsburgh, PA 15106 USA
  
  
 ---------------------------------------------------------------
 Warning -- This program may not be used in any manner that
 competes with the business of Gaussian, Inc. or will provide
 assistance to any competitor of Gaussian, Inc.  The licensee
 of this program is prohibited from giving any competitor of
 Gaussian, Inc. access to this program.  By using this program,
 the user acknowledges that Gaussian, Inc. is engaged in the
 business of creating and licensing software in the field of
 computational chemistry and represents and warrants to the
 licensee that it is not a competitor of Gaussian, Inc. and that
 it will not use this program in any manner prohibited above.
 ---------------------------------------------------------------
  

 Cite this work as:
 Gaussian 03, Revision B.05,
 M. J. Frisch, G. W. Trucks, H. B. Schlegel, G. E. Scuseria, 
 M. A. Robb, J. R. Cheeseman, J. A. Montgomery, Jr., T. Vreven, 
 K. N. Kudin, J. C. Burant, J. M. Millam, S. S. Iyengar, J. Tomasi, 
 V. Barone, B. Mennucci, M. Cossi, G. Scalmani, N. Rega, 
 G. A. Petersson, H. Nakatsuji, M. Hada, M. Ehara, K. Toyota, 
 R. Fukuda, J. Hasegawa, M. Ishida, T. Nakajima, Y. Honda, O. Kitao, 
 H. Nakai, M. Klene, X. Li, J. E. Knox, H. P. Hratchian, J. B. Cross, 
 C. Adamo, J. Jaramillo, R. Gomperts, R. E. Stratmann, O. Yazyev, 
 A. J. Austin, R. Cammi, C. Pomelli, J. W. Ochterski, P. Y. Ayala, 
 K. Morokuma, G. A. Voth, P. Salvador, J. J. Dannenberg, 
 V. G. Zakrzewski, S. Dapprich, A. D. Daniels, M. C. Strain, 
 O. Farkas, D. K. Malick, A. D. Rabuck, K. Raghavachari, 
 J. B. Foresman, J. V. Ortiz, Q. Cui, A. G. Baboul, S. Clifford, 
 J. Cioslowski, B. B. Stefanov, G. Liu, A. Liashenko, P. Piskorz, 
 I. Komaromi, R. L. Martin, D. J. Fox, T. Keith, M. A. Al-Laham, 
 C. Y. Peng, A. Nanayakkara, M. Challacombe, P. M. W. Gill, 
 B. Johnson, W. Chen, M. W. Wong, C. Gonzalez, and J. A. Pople, 
 Gaussian, Inc., Pittsburgh PA, 2003.
 
 **********************************************
 Gaussian 03:  x86-Linux-G03RevB.05 24-Oct-2003
                  21-Oct-2005 
 **********************************************
 %chk=peroxide_isomer_opt
 %mem=900MB
 ----------------------------------------------------------------------
 # opt=maxcycle=100 freq ub3lyp/6-311+g(3df,2p) geom=connectivity scf=(
 tight,maxcycle=1000)
 ----------------------------------------------------------------------
 1/6=100,14=-1,18=20,26=3,38=1,57=2/1,3;
 2/9=110,17=6,18=5,40=1/2;
 3/5=4,6=6,7=216,11=2,16=1,25=1,30=1,74=-5/1,2,3;
 4/7=2/1;
 5/5=2,7=1000,32=2,38=5/2;
 6/7=2,8=2,9=2,10=2,28=1/1;
 7//1,2,3,16;
 1/6=100,14=-1,18=20/3(1);
 99//99;
 2/9=110/2;
 3/5=4,6=6,7=216,11=2,16=1,25=1,30=1,74=-5/1,2,3;
 4/5=5,7=2,16=3/1;
 5/5=2,7=1000,32=2,38=5/2;
 7//1,2,3,16;
 1/6=100,14=-1,18=20/3(-5);
 2/9=110/2;
 6/7=2,8=2,9=2,10=2,19=2,28=1/1;
 99/9=1/99;
 ---------------
 acetyl peroxide
 ---------------
 Symbolic Z-matrix:
 Charge =  0 Multiplicity = 2
 C                    -0.55365  -0.13186   0.00001 
 O                    -1.4705   -0.88101   0.00003 
 C                    -0.5544    1.36048  -0.00002 
 H                    -0.20073  -2.37813  -0.00007 
 H                     0.46556   1.74172  -0.00009 
 H                    -1.58695   1.69445   0.00004 
 O                     0.74589  -0.76383  -0.00006 
 O                     0.71224  -2.08135  -0.0001 
 

 GradGradGradGradGradGradGradGradGradGradGradGradGradGradGradGradGradGrad
 Berny optimization.
 Initialization pass.
                           ----------------------------
                           !    Initial Parameters    !
                           ! (Angstroms and Degrees)  !
 --------------------------                            --------------------------
 ! Name  Definition              Value          Derivative Info.                !
 --------------------------------------------------------------------------------
 ! R1    R(1,2)                  1.184          estimate D2E/DX2                !
 ! R2    R(1,3)                  1.4923         estimate D2E/DX2                !
 ! R3    R(1,7)                  1.4451         estimate D2E/DX2                !
 ! R4    R(3,5)                  1.0889         estimate D2E/DX2                !
 ! R5    R(3,6)                  1.0852         estimate D2E/DX2                !
 ! R6    R(4,8)                  0.96           estimate D2E/DX2                !
 ! R7    R(7,8)                  1.318          estimate D2E/DX2                !
 ! A1    A(2,1,3)              129.2233         estimate D2E/DX2                !
 ! A2    A(2,1,7)              114.8142         estimate D2E/DX2                !
 ! A3    A(3,1,7)              115.9625         estimate D2E/DX2                !
 ! A4    A(1,3,5)              110.4658         estimate D2E/DX2                !
 ! A5    A(1,3,6)              107.9523         estimate D2E/DX2                !
 ! A6    A(5,3,6)              141.5819         estimate D2E/DX2                !
 ! A7    A(1,7,8)              114.4707         estimate D2E/DX2                !
 ! A8    A(4,8,7)              109.4712         estimate D2E/DX2                !
 ! D1    D(2,1,3,5)           -179.9962         estimate D2E/DX2                !
 ! D2    D(2,1,3,6)              0.0038         estimate D2E/DX2                !
 ! D3    D(7,1,3,5)              0.0            estimate D2E/DX2                !
 ! D4    D(7,1,3,6)            180.0            estimate D2E/DX2                !
 ! D5    D(2,1,7,8)              0.0            estimate D2E/DX2                !
 ! D6    D(3,1,7,8)           -179.9967         estimate D2E/DX2                !
 ! D7    D(1,7,8,4)              0.0            estimate D2E/DX2                !
 --------------------------------------------------------------------------------
 Trust Radius=3.00D-01 FncErr=1.00D-07 GrdErr=1.00D-06
 Number of steps in this run= 100 maximum allowed number of steps= 100.
 GradGradGradGradGradGradGradGradGradGradGradGradGradGradGradGradGradGrad

                          Input orientation:                          
 ---------------------------------------------------------------------
 Center     Atomic     Atomic              Coordinates (Angstroms)
 Number     Number      Type              X           Y           Z
 ---------------------------------------------------------------------
    1          6             0       -0.553649   -0.131858    0.000013
    2          8             0       -1.470502   -0.881014    0.000028
    3          6             0       -0.554399    1.360480   -0.000018
    4          1             0       -0.200732   -2.378132   -0.000070
    5          1             0        0.465563    1.741718   -0.000094
    6          1             0       -1.586954    1.694454    0.000044
    7          8             0        0.745890   -0.763825   -0.000060
    8          8             0        0.712240   -2.081346   -0.000099
 ---------------------------------------------------------------------
                    Distance matrix (angstroms):
                    1          2          3          4          5
     1  C    0.000000
     2  O    1.183999   0.000000
     3  C    1.492338   2.421475   0.000000
     4  H    2.273829   1.963079   3.755303   0.000000
     5  H    2.132857   3.259919   1.088882   4.173382   0.000000
     6  H    2.098365   2.578099   1.085223   4.302043   2.053061
     7  O    1.445055   2.219488   2.490667   1.871385   2.521176
     8  O    2.324430   2.491016   3.667498   0.960000   3.831014
                    6          7          8
     6  H    0.000000
     7  O    3.388996   0.000000
     8  O    4.420742   1.317950   0.000000
 Stoichiometry    C2H3O3(2)
 Framework group  C1[X(C2H3O3)]
 Deg. of freedom    18
 Full point group                 C1      NOp   1
 Largest Abelian subgroup         C1      NOp   1
 Largest concise Abelian subgroup C1      NOp   1
                         Standard orientation:                         
 ---------------------------------------------------------------------
 Center     Atomic     Atomic              Coordinates (Angstroms)
 Number     Number      Type              X           Y           Z
 ---------------------------------------------------------------------
    1          6             0       -0.524894    0.134366   -0.000044
    2          8             0       -0.242029    1.284079   -0.000059
    3          6             0       -1.872962   -0.505780   -0.000013
    4          1             0        1.655284    0.780214    0.000039
    5          1             0       -1.779281   -1.590625    0.000063
    6          1             0       -2.617966    0.283319   -0.000074
    7          8             0        0.603875   -0.767889    0.000029
    8          8             0        1.779292   -0.171743    0.000068
 ---------------------------------------------------------------------
 Rotational constants (GHZ):     11.8499396      4.3670053      3.1910295
 Standard basis: 6-311+G(3df,2p) (5D, 7F)
 There are   222 symmetry adapted basis functions of A   symmetry.
 Integral buffers will be    262144 words long.
 Raffenetti 2 integral format.
 Two-electron integral symmetry is turned on.
   222 basis functions,   323 primitive gaussians,   252 cartesian basis functions
    20 alpha electrons       19 beta electrons
       nuclear repulsion energy       173.2423676699 Hartrees.
 NAtoms=    8 NActive=    8 NUniq=    8 SFac= 1.00D+00 NAtFMM=   60 Big=F
 One-electron integrals computed using PRISM.
 NBasis=   222 RedAO= T  NBF=   222
 NBsUse=   222 1.00D-06 NBFU=   222
 Harris functional with IExCor=  402 diagonalized for initial guess.
 ExpMin= 4.38D-02 ExpMax= 8.59D+03 ExpMxC= 1.30D+03 IAcc=2 IRadAn=         4 AccDes= 0.00D+00
 HarFok:  IExCor= 402 AccDes= 0.00D+00 IRadAn=         4 IDoV=1
 ScaDFX=  1.000000  1.000000  1.000000  1.000000
 Initial guess orbital symmetries:
 Alpha Orbitals:
       Occupied  (A) (A) (A) (A) (A) (A) (A) (A) (A) (A) (A) (A)
                 (A) (A) (A) (A) (A) (A) (A) (A)
       Virtual   (A) (A) (A) (A) (A) (A) (A) (A) (A) (A) (A) (A)
                 (A) (A) (A) (A) (A) (A) (A) (A) (A) (A) (A) (A)
                 (A) (A) (A) (A) (A) (A) (A) (A) (A) (A) (A) (A)
                 (A) (A) (A) (A) (A) (A) (A) (A) (A) (A) (A) (A)
                 (A) (A) (A) (A) (A) (A) (A) (A) (A) (A) (A) (A)
                 (A) (A) (A) (A) (A) (A) (A) (A) (A) (A) (A) (A)
                 (A) (A) (A) (A) (A) (A) (A) (A) (A) (A) (A) (A)
                 (A) (A) (A) (A) (A) (A) (A) (A) (A) (A) (A) (A)
                 (A) (A) (A) (A) (A) (A) (A) (A) (A) (A) (A) (A)
                 (A) (A) (A) (A) (A) (A) (A) (A) (A) (A) (A) (A)
                 (A) (A) (A) (A) (A) (A) (A) (A) (A) (A) (A) (A)
                 (A) (A) (A) (A) (A) (A) (A) (A) (A) (A) (A) (A)
                 (A) (A) (A) (A) (A) (A) (A) (A) (A) (A) (A) (A)
                 (A) (A) (A) (A) (A) (A) (A) (A) (A) (A) (A) (A)
                 (A) (A) (A) (A) (A) (A) (A) (A) (A) (A) (A) (A)
                 (A) (A) (A) (A) (A) (A) (A) (A) (A) (A) (A) (A)
                 (A) (A) (A) (A) (A) (A) (A) (A) (A) (A)
 Beta  Orbitals:
       Occupied  (A) (A) (A) (A) (A) (A) (A) (A) (A) (A) (A) (A)
                 (A) (A) (A) (A) (A) (A) (A)
       Virtual   (A) (A) (A) (A) (A) (A) (A) (A) (A) (A) (A) (A)
                 (A) (A) (A) (A) (A) (A) (A) (A) (A) (A) (A) (A)
                 (A) (A) (A) (A) (A) (A) (A) (A) (A) (A) (A) (A)
                 (A) (A) (A) (A) (A) (A) (A) (A) (A) (A) (A) (A)
                 (A) (A) (A) (A) (A) (A) (A) (A) (A) (A) (A) (A)
                 (A) (A) (A) (A) (A) (A) (A) (A) (A) (A) (A) (A)
                 (A) (A) (A) (A) (A) (A) (A) (A) (A) (A) (A) (A)
                 (A) (A) (A) (A) (A) (A) (A) (A) (A) (A) (A) (A)
                 (A) (A) (A) (A) (A) (A) (A) (A) (A) (A) (A) (A)
                 (A) (A) (A) (A) (A) (A) (A) (A) (A) (A) (A) (A)
                 (A) (A) (A) (A) (A) (A) (A) (A) (A) (A) (A) (A)
                 (A) (A) (A) (A) (A) (A) (A) (A) (A) (A) (A) (A)
                 (A) (A) (A) (A) (A) (A) (A) (A) (A) (A) (A) (A)
                 (A) (A) (A) (A) (A) (A) (A) (A) (A) (A) (A) (A)
                 (A) (A) (A) (A) (A) (A) (A) (A) (A) (A) (A) (A)
                 (A) (A) (A) (A) (A) (A) (A) (A) (A) (A) (A) (A)
                 (A) (A) (A) (A) (A) (A) (A) (A) (A) (A) (A)
 The electronic state of the initial guess is 2-A.
 <S**2> of initial guess= 0.7500
 Requested convergence on RMS density matrix=1.00D-08 within1000 cycles.
 Requested convergence on MAX density matrix=1.00D-06.
 Requested convergence on             energy=1.00D-06.
 No special actions if energy rises.
 SCF Done:  E(UB+HF-LYP) =  -303.643183266     A.U. after   15 cycles
             Convg  =    0.6947D-08             -V/T =  2.0032
             S**2   =   0.7562
 Annihilation of the first spin contaminant:
 S**2 before annihilation     0.7562,   after     0.7500

 **********************************************************************

            Population analysis using the SCF density.

 **********************************************************************

 Orbital symmetries:
 Alpha Orbitals:
       Occupied  (A) (A) (A) (A) (A) (A) (A) (A) (A) (A) (A) (A)
                 (A) (A) (A) (A) (A) (A) (A) (A)
       Virtual   (A) (A) (A) (A) (A) (A) (A) (A) (A) (A) (A) (A)
                 (A) (A) (A) (A) (A) (A) (A) (A) (A) (A) (A) (A)
                 (A) (A) (A) (A) (A) (A) (A) (A) (A) (A) (A) (A)
                 (A) (A) (A) (A) (A) (A) (A) (A) (A) (A) (A) (A)
                 (A) (A) (A) (A) (A) (A) (A) (A) (A) (A) (A) (A)
                 (A) (A) (A) (A) (A) (A) (A) (A) (A) (A) (A) (A)
                 (A) (A) (A) (A) (A) (A) (A) (A) (A) (A) (A) (A)
                 (A) (A) (A) (A) (A) (A) (A) (A) (A) (A) (A) (A)
                 (A) (A) (A) (A) (A) (A) (A) (A) (A) (A) (A) (A)
                 (A) (A) (A) (A) (A) (A) (A) (A) (A) (A) (A) (A)
                 (A) (A) (A) (A) (A) (A) (A) (A) (A) (A) (A) (A)
                 (A) (A) (A) (A) (A) (A) (A) (A) (A) (A) (A) (A)
                 (A) (A) (A) (A) (A) (A) (A) (A) (A) (A) (A) (A)
                 (A) (A) (A) (A) (A) (A) (A) (A) (A) (A) (A) (A)
                 (A) (A) (A) (A) (A) (A) (A) (A) (A) (A) (A) (A)
                 (A) (A) (A) (A) (A) (A) (A) (A) (A) (A) (A) (A)
                 (A) (A) (A) (A) (A) (A) (A) (A) (A) (A)
 Beta  Orbitals:
       Occupied  (A) (A) (A) (A) (A) (A) (A) (A) (A) (A) (A) (A)
                 (A) (A) (A) (A) (A) (A) (A)
       Virtual   (A) (A) (A) (A) (A) (A) (A) (A) (A) (A) (A) (A)
                 (A) (A) (A) (A) (A) (A) (A) (A) (A) (A) (A) (A)
                 (A) (A) (A) (A) (A) (A) (A) (A) (A) (A) (A) (A)
                 (A) (A) (A) (A) (A) (A) (A) (A) (A) (A) (A) (A)
                 (A) (A) (A) (A) (A) (A) (A) (A) (A) (A) (A) (A)
                 (A) (A) (A) (A) (A) (A) (A) (A) (A) (A) (A) (A)
                 (A) (A) (A) (A) (A) (A) (A) (A) (A) (A) (A) (A)
                 (A) (A) (A) (A) (A) (A) (A) (A) (A) (A) (A) (A)
                 (A) (A) (A) (A) (A) (A) (A) (A) (A) (A) (A) (A)
                 (A) (A) (A) (A) (A) (A) (A) (A) (A) (A) (A) (A)
                 (A) (A) (A) (A) (A) (A) (A) (A) (A) (A) (A) (A)
                 (A) (A) (A) (A) (A) (A) (A) (A) (A) (A) (A) (A)
                 (A) (A) (A) (A) (A) (A) (A) (A) (A) (A) (A) (A)
                 (A) (A) (A) (A) (A) (A) (A) (A) (A) (A) (A) (A)
                 (A) (A) (A) (A) (A) (A) (A) (A) (A) (A) (A) (A)
                 (A) (A) (A) (A) (A) (A) (A) (A) (A) (A) (A) (A)
                 (A) (A) (A) (A) (A) (A) (A) (A) (A) (A) (A)
 The electronic state is 2-A.
 Alpha  occ. eigenvalues --  -19.22912 -19.20178 -19.14618 -10.32371 -10.25017
 Alpha  occ. eigenvalues --   -1.22049  -1.09446  -0.92105  -0.77826  -0.65842
 Alpha  occ. eigenvalues --   -0.53824  -0.51309  -0.50553  -0.49339  -0.45049
 Alpha  occ. eigenvalues --   -0.42249  -0.39313  -0.32422  -0.30010  -0.27021
 Alpha virt. eigenvalues --   -0.00008   0.00429   0.01355   0.03660   0.04745
 Alpha virt. eigenvalues --    0.05492   0.07115   0.08129   0.09085   0.09118
 Alpha virt. eigenvalues --    0.13639   0.16236   0.16971   0.17417   0.18014
 Alpha virt. eigenvalues --    0.19276   0.20394   0.21108   0.23128   0.25480
 Alpha virt. eigenvalues --    0.26740   0.26838   0.27256   0.28106   0.29708
 Alpha virt. eigenvalues --    0.31051   0.33226   0.35547   0.38117   0.39947
 Alpha virt. eigenvalues --    0.42370   0.43677   0.46143   0.46889   0.50895
 Alpha virt. eigenvalues --    0.52722   0.54913   0.55048   0.60432   0.63150
 Alpha virt. eigenvalues --    0.64018   0.66517   0.69211   0.71255   0.73942
 Alpha virt. eigenvalues --    0.75798   0.77242   0.80891   0.85542   0.90466
 Alpha virt. eigenvalues --    0.90851   0.91391   0.92204   0.94599   0.97484
 Alpha virt. eigenvalues --    0.97883   1.01879   1.03479   1.04667   1.05767
 Alpha virt. eigenvalues --    1.06006   1.09371   1.12816   1.14483   1.15084
 Alpha virt. eigenvalues --    1.18364   1.19533   1.23250   1.24851   1.25820
 Alpha virt. eigenvalues --    1.28502   1.34665   1.35444   1.36697   1.37858
 Alpha virt. eigenvalues --    1.40081   1.44540   1.48044   1.53570   1.56615
 Alpha virt. eigenvalues --    1.61920   1.65025   1.68077   1.75288   1.82705
 Alpha virt. eigenvalues --    1.83774   1.90519   1.97508   1.99519   2.02025
 Alpha virt. eigenvalues --    2.17199   2.23218   2.35186   2.42902   2.45879
 Alpha virt. eigenvalues --    2.48822   2.62231   2.66697   2.69130   2.77750
 Alpha virt. eigenvalues --    2.79386   2.84102   2.87943   2.88716   2.96403
 Alpha virt. eigenvalues --    3.03736   3.04234   3.05106   3.10373   3.11886
 Alpha virt. eigenvalues --    3.15103   3.15325   3.22293   3.27016   3.35080
 Alpha virt. eigenvalues --    3.36670   3.45928   3.50184   3.57361   3.57508
 Alpha virt. eigenvalues --    3.59441   3.65711   3.67607   3.68121   3.72916
 Alpha virt. eigenvalues --    3.84901   3.91568   3.95679   4.00241   4.04197
 Alpha virt. eigenvalues --    4.16872   4.18364   4.20465   4.26493   4.28240
 Alpha virt. eigenvalues --    4.40821   4.50146   4.60971   4.63206   4.63992
 Alpha virt. eigenvalues --    4.69414   4.72308   4.78711   4.99412   5.00070
 Alpha virt. eigenvalues --    5.05439   5.10021   5.10862   5.19484   5.22900
 Alpha virt. eigenvalues --    5.24685   5.29809   5.33132   5.39073   5.43636
 Alpha virt. eigenvalues --    5.47047   5.51048   5.54124   5.61593   5.66376
 Alpha virt. eigenvalues --    5.73538   5.79712   5.85124   5.94049   6.13508
 Alpha virt. eigenvalues --    6.29615   6.41781   6.45037   6.60213   6.88590
 Alpha virt. eigenvalues --    6.98860   7.00112   7.04136   7.26284   7.29774
 Alpha virt. eigenvalues --    7.44563   7.63634   7.68623   7.70432   7.83779
 Alpha virt. eigenvalues --    8.24005   8.36133  14.12259  14.17869  14.27067
 Alpha virt. eigenvalues --   14.29768  14.33397  14.34217  14.41923  14.46164
 Alpha virt. eigenvalues --   14.59771  14.68430  14.68681  14.83973  14.96124
 Alpha virt. eigenvalues --   15.09805  15.70683  24.25541  25.03673  50.01535
 Alpha virt. eigenvalues --   50.13806  50.47834
  Beta  occ. eigenvalues --  -19.22694 -19.20061 -19.14340 -10.32500 -10.23737
  Beta  occ. eigenvalues --   -1.21741  -1.08981  -0.91724  -0.74998  -0.65449
  Beta  occ. eigenvalues --   -0.53103  -0.50847  -0.49571  -0.48721  -0.44585
  Beta  occ. eigenvalues --   -0.40732  -0.39149  -0.32016  -0.27016
  Beta virt. eigenvalues --   -0.15250   0.00297   0.01475   0.01905   0.03720
  Beta virt. eigenvalues --    0.04741   0.06657   0.07340   0.08371   0.09614
  Beta virt. eigenvalues --    0.10000   0.13894   0.16391   0.17048   0.17719
  Beta virt. eigenvalues --    0.18111   0.19458   0.20505   0.21307   0.23224
  Beta virt. eigenvalues --    0.25505   0.27073   0.27157   0.27344   0.28220
  Beta virt. eigenvalues --    0.30675   0.31072   0.33906   0.35911   0.38898
  Beta virt. eigenvalues --    0.40827   0.42938   0.44560   0.47021   0.47636
  Beta virt. eigenvalues --    0.52718   0.52827   0.55185   0.56198   0.60892
  Beta virt. eigenvalues --    0.63266   0.64347   0.67318   0.69389   0.71670
  Beta virt. eigenvalues --    0.74116   0.76262   0.77502   0.81152   0.86275
  Beta virt. eigenvalues --    0.90655   0.91028   0.91660   0.92302   0.95049
  Beta virt. eigenvalues --    0.97520   0.98349   1.02108   1.03921   1.05453
  Beta virt. eigenvalues --    1.06000   1.06462   1.10053   1.13578   1.14677
  Beta virt. eigenvalues --    1.15272   1.18740   1.19833   1.23399   1.25373
  Beta virt. eigenvalues --    1.26340   1.28724   1.35020   1.35839   1.36876
  Beta virt. eigenvalues --    1.38950   1.40413   1.44623   1.50508   1.53824
  Beta virt. eigenvalues --    1.56858   1.64787   1.65134   1.68697   1.76603
  Beta virt. eigenvalues --    1.83402   1.84417   1.92294   1.97808   2.01415
  Beta virt. eigenvalues --    2.02366   2.17689   2.24507   2.35880   2.43469
  Beta virt. eigenvalues --    2.46038   2.49344   2.65827   2.67556   2.71711
  Beta virt. eigenvalues --    2.78289   2.79999   2.84906   2.89848   2.91474
  Beta virt. eigenvalues --    2.99345   3.04420   3.04515   3.05792   3.11668
  Beta virt. eigenvalues --    3.13540   3.16134   3.16665   3.22966   3.27850
  Beta virt. eigenvalues --    3.35396   3.37484   3.46381   3.51144   3.57804
  Beta virt. eigenvalues --    3.57885   3.60101   3.66254   3.68072   3.68818
  Beta virt. eigenvalues --    3.72908   3.85107   3.91807   3.96603   4.01416
  Beta virt. eigenvalues --    4.04243   4.17340   4.19332   4.20501   4.26594
  Beta virt. eigenvalues --    4.29478   4.40846   4.50165   4.61261   4.63595
  Beta virt. eigenvalues --    4.64286   4.69487   4.72571   4.78937   4.99537
  Beta virt. eigenvalues --    5.00807   5.05982   5.10525   5.11627   5.19691
  Beta virt. eigenvalues --    5.23959   5.24960   5.30040   5.33497   5.39466
  Beta virt. eigenvalues --    5.43994   5.47299   5.51533   5.54602   5.61736
  Beta virt. eigenvalues --    5.66731   5.73847   5.80025   5.85353   5.94340
  Beta virt. eigenvalues --    6.13770   6.30085   6.41871   6.45400   6.60231
  Beta virt. eigenvalues --    6.88679   7.02495   7.04246   7.05798   7.26165
  Beta virt. eigenvalues --    7.38139   7.46975   7.63730   7.68760   7.70657
  Beta virt. eigenvalues --    7.84211   8.24460   8.36287  14.12907  14.18371
  Beta virt. eigenvalues --   14.27611  14.29901  14.34204  14.35251  14.43029
  Beta virt. eigenvalues --   14.46682  14.60456  14.68999  14.69487  14.84154
  Beta virt. eigenvalues --   14.96422  15.10232  15.70860  24.26919  25.03603
  Beta virt. eigenvalues --   50.01701  50.13970  50.48107
          Condensed to atoms (all electrons):
              1          2          3          4          5          6
     1  C    5.252133   0.143094  -0.229413  -0.030006  -0.071726  -0.067752
     2  O    0.143094   8.753522  -0.036270   0.024086   0.000397  -0.006604
     3  C   -0.229413  -0.036270   5.782409   0.003038   0.460495   0.448773
     4  H   -0.030006   0.024086   0.003038   0.549951  -0.000021  -0.000024
     5  H   -0.071726   0.000397   0.460495  -0.000021   0.431453  -0.010479
     6  H   -0.067752  -0.006604   0.448773  -0.000024  -0.010479   0.417410
     7  O    0.181307  -0.185457  -0.112546  -0.016372  -0.010486   0.004018
     8  O   -0.080107   0.007234   0.012414   0.206204  -0.000448  -0.000030
              7          8
     1  C    0.181307  -0.080107
     2  O   -0.185457   0.007234
     3  C   -0.112546   0.012414
     4  H   -0.016372   0.206204
     5  H   -0.010486  -0.000448
     6  H    0.004018  -0.000030
     7  O    8.466281  -0.049333
     8  O   -0.049333   8.178871
 Mulliken atomic charges:
              1
     1  C    0.902470
     2  O   -0.700002
     3  C   -0.328901
     4  H    0.263143
     5  H    0.200816
     6  H    0.214690
     7  O   -0.277411
     8  O   -0.274805
 Sum of Mulliken charges=   0.00000
 Atomic charges with hydrogens summed into heavy atoms:
              1
     1  C    0.902470
     2  O   -0.700002
     3  C    0.086605
     4  H    0.000000
     5  H    0.000000
     6  H    0.000000
     7  O   -0.277411
     8  O   -0.011662
 Sum of Mulliken charges=   0.00000
          Atomic-Atomic Spin Densities.
              1          2          3          4          5          6
     1  C   -0.099596  -0.001843   0.004640   0.000033   0.003230  -0.001251
     2  O   -0.001843   0.123114  -0.020908  -0.000931  -0.000301  -0.000194
     3  C    0.004640  -0.020908   0.973152  -0.000028   0.001265   0.005711
     4  H    0.000033  -0.000931  -0.000028  -0.002281   0.000011  -0.000002
     5  H    0.003230  -0.000301   0.001265   0.000011  -0.033176   0.002164
     6  H   -0.001251  -0.000194   0.005711  -0.000002   0.002164  -0.033528
     7  O    0.001298   0.007106  -0.019467   0.000520  -0.000168  -0.000400
     8  O    0.000825  -0.004218   0.002603   0.000045  -0.000014   0.000048
              7          8
     1  C    0.001298   0.000825
     2  O    0.007106  -0.004218
     3  C   -0.019467   0.002603
     4  H    0.000520   0.000045
     5  H   -0.000168  -0.000014
     6  H   -0.000400   0.000048
     7  O    0.093641  -0.017028
     8  O   -0.017028   0.053181
 Mulliken atomic spin densities:
              1
     1  C   -0.092664
     2  O    0.101824
     3  C    0.946968
     4  H   -0.002633
     5  H   -0.026989
     6  H   -0.027452
     7  O    0.065503
     8  O    0.035443
 Sum of Mulliken spin densities=   1.00000
 Electronic spatial extent (au):  <R**2>=   374.7675
 Charge=     0.0000 electrons
 Dipole moment (field-independent basis, Debye):
    X=    -2.2515    Y=    -0.4434    Z=     0.0000  Tot=     2.2948
 Quadrupole moment (field-independent basis, Debye-Ang):
   XX=   -25.5035   YY=   -30.4331   ZZ=   -29.3956
   XY=     3.9541   XZ=     0.0000   YZ=     0.0001
 Traceless Quadrupole moment (field-independent basis, Debye-Ang):
   XX=     2.9406   YY=    -1.9891   ZZ=    -0.9515
   XY=     3.9541   XZ=     0.0000   YZ=     0.0001
 Octapole moment (field-independent basis, Debye-Ang**2):
  XXX=    -1.5941  YYY=    -5.1585  ZZZ=     0.0001  XYY=     3.2907
  XXY=     6.6165  XXZ=    -0.0003  XZZ=     3.6373  YZZ=     1.1001
  YYZ=     0.0006  XYZ=     0.0004
 Hexadecapole moment (field-independent basis, Debye-Ang**3):
 XXXX=  -300.1339 YYYY=  -125.1850 ZZZZ=   -27.7702 XXXY=     0.6411
 XXXZ=    -0.0028 YYYX=     5.7056 YYYZ=     0.0020 ZZZX=    -0.0037
 ZZZY=     0.0020 XXYY=   -65.1959 XXZZ=   -61.7762 YYZZ=   -26.0119
 XXYZ=     0.0003 YYXZ=    -0.0015 ZZXY=    -1.8230
 N-N= 1.732423676699D+02 E-N=-1.060909390006D+03  KE= 3.026881109680D+02
                          Isotropic Fermi Contact Couplings
        Atom                 a.u.       MegaHertz       Gauss      10(-4) cm-1
     1  C(13)             -0.03724     -41.86756     -14.93939     -13.96552
     2  O(17)              0.00769      -4.66344      -1.66403      -1.55556
     3  C(13)              0.05947      66.85025      23.85383      22.29884
     4  H(1)              -0.00059      -2.62923      -0.93817      -0.87702
     5  H(1)              -0.01240     -55.42633     -19.77749     -18.48823
     6  H(1)              -0.01257     -56.17344     -20.04408     -18.73744
     7  O(17)              0.00439      -2.65992      -0.94912      -0.88725
     8  O(17)              0.00635      -3.84955      -1.37362      -1.28407
 --------------------------------------------------------
       Center         ----  Spin Dipole Couplings  ----
                      3XX-RR        3YY-RR        3ZZ-RR
 --------------------------------------------------------
     1   Atom        0.041056      0.017588     -0.058644
     2   Atom       -0.222291     -0.215834      0.438125
     3   Atom       -0.525953     -0.530131      1.056085
     4   Atom        0.000072      0.006237     -0.006310
     5   Atom       -0.063127      0.065048     -0.001921
     6   Atom       -0.001113      0.002504     -0.001391
     7   Atom       -0.165997     -0.185841      0.351838
     8   Atom       -0.106511     -0.099224      0.205735
 --------------------------------------------------------
                        XY            XZ            YZ
 --------------------------------------------------------
     1   Atom        0.017534      0.000000     -0.000004
     2   Atom        0.003435     -0.000044      0.000006
     3   Atom        0.003343      0.000003      0.000119
     4   Atom        0.000166      0.000000      0.000000
     5   Atom       -0.009425      0.000001     -0.000005
     6   Atom       -0.065030      0.000005     -0.000001
     7   Atom       -0.002779     -0.000027      0.000017
     8   Atom       -0.002845     -0.000010      0.000008
 --------------------------------------------------------


 ---------------------------------------------------------------------------------
              Anisotropic Spin Dipole Couplings in Principal Axis System
 ---------------------------------------------------------------------------------

       Atom             a.u.   MegaHertz   Gauss  10(-4) cm-1        Axes

              Baa    -0.0586    -7.869    -2.808    -2.625  0.0000  0.0001  1.0000
     1 C(13)  Bbb     0.0082     1.104     0.394     0.368 -0.4711  0.8821  0.0000
              Bcc     0.0504     6.766     2.414     2.257  0.8821  0.4711  0.0000
 
              Baa    -0.2238    16.192     5.778     5.401  0.9178 -0.3969  0.0001
     2 O(17)  Bbb    -0.2143    15.510     5.534     5.174  0.3969  0.9178  0.0000
              Bcc     0.4381   -31.702   -11.312   -10.575 -0.0001  0.0000  1.0000
 
              Baa    -0.5320   -71.387   -25.473   -23.812 -0.4848  0.8746 -0.0001
     3 C(13)  Bbb    -0.5241   -70.329   -25.095   -23.459  0.8746  0.4848  0.0000
              Bcc     1.0561   141.716    50.568    47.272  0.0000  0.0001  1.0000
 
              Baa    -0.0063    -3.367    -1.201    -1.123  0.0000  0.0000  1.0000
     4 H(1)   Bbb     0.0001     0.036     0.013     0.012  0.9996 -0.0269  0.0000
              Bcc     0.0062     3.330     1.188     1.111  0.0269  0.9996  0.0000
 
              Baa    -0.0638   -34.049   -12.150   -11.358  0.9973  0.0729  0.0000
     5 H(1)   Bbb    -0.0019    -1.025    -0.366    -0.342  0.0000  0.0001  1.0000
              Bcc     0.0657    35.075    12.515    11.700 -0.0729  0.9973 -0.0001
 
              Baa    -0.0644   -34.339   -12.253   -11.454  0.7169  0.6972 -0.0001
     6 H(1)   Bbb    -0.0014    -0.742    -0.265    -0.248  0.0000  0.0001  1.0000
              Bcc     0.0658    35.082    12.518    11.702 -0.6972  0.7169 -0.0001
 
              Baa    -0.1862    13.475     4.808     4.495  0.1361  0.9907  0.0000
     7 O(17)  Bbb    -0.1656    11.984     4.276     3.997  0.9907 -0.1361  0.0001
              Bcc     0.3518   -25.459    -9.084    -8.492 -0.0001  0.0000  1.0000
 
              Baa    -0.1075     7.778     2.775     2.594  0.9456  0.3255  0.0000
     8 O(17)  Bbb    -0.0982     7.109     2.537     2.371 -0.3255  0.9456  0.0000
              Bcc     0.2057   -14.887    -5.312    -4.966  0.0000  0.0000  1.0000
 

 ---------------------------------------------------------------------------------

 ***** Axes restored to original set *****
 -------------------------------------------------------------------
 Center     Atomic                   Forces (Hartrees/Bohr)
 Number     Number              X              Y              Z
 -------------------------------------------------------------------
    1          6           0.044766964    0.006002926   -0.000008364
    2          8          -0.042547687   -0.015920003    0.000003601
    3          6           0.014026039   -0.065536392    0.000002739
    4          1          -0.020779435    0.005957738    0.000001078
    5          1          -0.015148063    0.018172734    0.000000781
    6          1           0.012144111    0.017559387   -0.000001373
    7          8          -0.011580303    0.101914210    0.000003897
    8          8           0.019118374   -0.068150600   -0.000002358
 -------------------------------------------------------------------
 Cartesian Forces:  Max     0.101914210 RMS     0.032665633

 GradGradGradGradGradGradGradGradGradGradGradGradGradGradGradGradGradGrad
 Berny optimization.
 Internal  Forces:  Max     0.062213417 RMS     0.023292217
 Search for a local minimum.
 Step number   1 out of a maximum of 100
 All quantities printed in internal units (Hartrees-Bohrs-Radians)
 Second derivative matrix not updated -- first step.
     Eigenvalues ---    0.00867   0.00867   0.00928   0.01096   0.02380
     Eigenvalues ---    0.16000   0.16000   0.16000   0.25000   0.25000
     Eigenvalues ---    0.25000   0.33195   0.34942   0.35371   0.38900
     Eigenvalues ---    0.55473   0.62445   1.132921000.000001000.00000
     Eigenvalues --- 1000.000001000.00000
 RFO step:  Lambda=-3.02527066D-02.
 Linear search not attempted -- first point.
 Maximum step size (   0.300) exceeded in Quadratic search.
    -- Step size scaled by   0.941
 Iteration  1 RMS(Cart)=  0.07701872 RMS(Int)=  0.00335758
 Iteration  2 RMS(Cart)=  0.00303584 RMS(Int)=  0.00000258
 Iteration  3 RMS(Cart)=  0.00000323 RMS(Int)=  0.00000045
 Iteration  4 RMS(Cart)=  0.00000000 RMS(Int)=  0.00000045
 Variable       Old X    -DE/DX   Delta X   Delta X   Delta X     New X
                                 (Linear)    (Quad)   (Total)
    R1        2.23743   0.04302   0.00000   0.03480   0.03480   2.27223
    R2        2.82011  -0.02981   0.00000  -0.07744  -0.07744   2.74267
    R3        2.73076  -0.02928   0.00000  -0.06570  -0.06570   2.66506
    R4        2.05769  -0.00783   0.00000  -0.01940  -0.01940   2.03829
    R5        2.05077  -0.00615   0.00000  -0.01507  -0.01507   2.03571
    R6        1.81414   0.01792   0.00000   0.02882   0.02882   1.84295
    R7        2.49057   0.06221   0.00000   0.08941   0.08941   2.57997
    A1        2.25537  -0.00188   0.00000  -0.00632  -0.00632   2.24905
    A2        2.00389   0.03077   0.00000   0.10329   0.10329   2.10717
    A3        2.02393  -0.02888   0.00000  -0.09697  -0.09697   1.92696
    A4        1.92799   0.01666   0.00000   0.08237   0.08237   2.01036
    A5        1.88412   0.01263   0.00000   0.06248   0.06248   1.94660
    A6        2.47107  -0.02929   0.00000  -0.14485  -0.14485   2.32622
    A7        1.99789  -0.02210   0.00000  -0.07419  -0.07419   1.92370
    A8        1.91063  -0.02193   0.00000  -0.10846  -0.10846   1.80217
    D1       -3.14153   0.00000   0.00000  -0.00004  -0.00004  -3.14157
    D2        0.00007   0.00000   0.00000  -0.00004  -0.00004   0.00002
    D3        0.00000   0.00000   0.00000   0.00003   0.00003   0.00003
    D4        3.14159   0.00000   0.00000   0.00003   0.00003  -3.14156
    D5        0.00000   0.00000   0.00000   0.00002   0.00002   0.00002
    D6       -3.14154   0.00000   0.00000  -0.00005  -0.00005  -3.14158
    D7        0.00000   0.00000   0.00000   0.00000   0.00000   0.00000
         Item               Value     Threshold  Converged?
 Maximum Force            0.062213     0.000450     NO 
 RMS     Force            0.023292     0.000300     NO 
 Maximum Displacement     0.218315     0.001800     NO 
 RMS     Displacement     0.077934     0.001200     NO 
 Predicted change in Energy=-1.643487D-02
 GradGradGradGradGradGradGradGradGradGradGradGradGradGradGradGradGradGrad

                          Input orientation:                          
 ---------------------------------------------------------------------
 Center     Atomic     Atomic              Coordinates (Angstroms)
 Number     Number      Type              X           Y           Z
 ---------------------------------------------------------------------
    1          6             0       -0.560861   -0.178866   -0.000019
    2          8             0       -1.510402   -0.916547    0.000024
    3          6             0       -0.535071    1.272264   -0.000017
    4          1             0       -0.230496   -2.262605   -0.000054
    5          1             0        0.449011    1.713845   -0.000087
    6          1             0       -1.529957    1.685382    0.000056
    7          8             0        0.751973   -0.694017   -0.000072
    8          8             0        0.723259   -2.058978   -0.000087
 ---------------------------------------------------------------------
                    Distance matrix (angstroms):
                    1          2          3          4          5
     1  C    0.000000
     2  O    1.202414   0.000000
     3  C    1.451359   2.396281   0.000000
     4  H    2.109765   1.857426   3.547966   0.000000
     5  H    2.145273   3.279979   1.078616   4.034090   0.000000
     6  H    2.101087   2.602002   1.077249   4.156345   1.979173
     7  O    1.410289   2.273292   2.350051   1.850869   2.426846
     8  O    2.276793   2.508862   3.560978   0.975250   3.782777
                    6          7          8
     6  H    0.000000
     7  O    3.296778   0.000000
     8  O    4.370036   1.365263   0.000000
 Stoichiometry    C2H3O3(2)
 Framework group  C1[X(C2H3O3)]
 Deg. of freedom    18
 Full point group                 C1      NOp   1
 Largest Abelian subgroup         C1      NOp   1
 Largest concise Abelian subgroup C1      NOp   1
                         Standard orientation:                         
 ---------------------------------------------------------------------
 Center     Atomic     Atomic              Coordinates (Angstroms)
 Number     Number      Type              X           Y           Z
 ---------------------------------------------------------------------
    1          6             0        0.493369    0.147759    0.000016
    2          8             0        0.253868    1.326080    0.000059
    3          6             0        1.782234   -0.519526    0.000019
    4          1             0       -1.520461    0.776726   -0.000019
    5          1             0        1.741076   -1.597356   -0.000052
    6          1             0        2.594060    0.188574    0.000091
    7          8             0       -0.551025   -0.799951   -0.000036
    8          8             0       -1.761380   -0.168297   -0.000051
 ---------------------------------------------------------------------
 Rotational constants (GHZ):     11.1472066      4.6449692      3.2787395
 Standard basis: 6-311+G(3df,2p) (5D, 7F)
 There are   222 symmetry adapted basis functions of A   symmetry.
 Integral buffers will be    262144 words long.
 Raffenetti 2 integral format.
 Two-electron integral symmetry is turned on.
   222 basis functions,   323 primitive gaussians,   252 cartesian basis functions
    20 alpha electrons       19 beta electrons
       nuclear repulsion energy       173.9118071686 Hartrees.
 NAtoms=    8 NActive=    8 NUniq=    8 SFac= 1.00D+00 NAtFMM=   60 Big=F
 One-electron integrals computed using PRISM.
 NBasis=   222 RedAO= T  NBF=   222
 NBsUse=   222 1.00D-06 NBFU=   222
 Initial guess read from the read-write file:
 Initial guess orbital symmetries:
 Alpha Orbitals:
       Occupied  (A) (A) (A) (A) (A) (A) (A) (A) (A) (A) (A) (A)
                 (A) (A) (A) (A) (A) (A) (A) (A)
       Virtual   (A) (A) (A) (A) (A) (A) (A) (A) (A) (A) (A) (A)
                 (A) (A) (A) (A) (A) (A) (A) (A) (A) (A) (A) (A)
                 (A) (A) (A) (A) (A) (A) (A) (A) (A) (A) (A) (A)
                 (A) (A) (A) (A) (A) (A) (A) (A) (A) (A) (A) (A)
                 (A) (A) (A) (A) (A) (A) (A) (A) (A) (A) (A) (A)
                 (A) (A) (A) (A) (A) (A) (A) (A) (A) (A) (A) (A)
                 (A) (A) (A) (A) (A) (A) (A) (A) (A) (A) (A) (A)
                 (A) (A) (A) (A) (A) (A) (A) (A) (A) (A) (A) (A)
                 (A) (A) (A) (A) (A) (A) (A) (A) (A) (A) (A) (A)
                 (A) (A) (A) (A) (A) (A) (A) (A) (A) (A) (A) (A)
                 (A) (A) (A) (A) (A) (A) (A) (A) (A) (A) (A) (A)
                 (A) (A) (A) (A) (A) (A) (A) (A) (A) (A) (A) (A)
                 (A) (A) (A) (A) (A) (A) (A) (A) (A) (A) (A) (A)
                 (A) (A) (A) (A) (A) (A) (A) (A) (A) (A) (A) (A)
                 (A) (A) (A) (A) (A) (A) (A) (A) (A) (A) (A) (A)
                 (A) (A) (A) (A) (A) (A) (A) (A) (A) (A) (A) (A)
                 (A) (A) (A) (A) (A) (A) (A) (A) (A) (A)
 Beta  Orbitals:
       Occupied  (A) (A) (A) (A) (A) (A) (A) (A) (A) (A) (A) (A)
                 (A) (A) (A) (A) (A) (A) (A)
       Virtual   (A) (A) (A) (A) (A) (A) (A) (A) (A) (A) (A) (A)
                 (A) (A) (A) (A) (A) (A) (A) (A) (A) (A) (A) (A)
                 (A) (A) (A) (A) (A) (A) (A) (A) (A) (A) (A) (A)
                 (A) (A) (A) (A) (A) (A) (A) (A) (A) (A) (A) (A)
                 (A) (A) (A) (A) (A) (A) (A) (A) (A) (A) (A) (A)
                 (A) (A) (A) (A) (A) (A) (A) (A) (A) (A) (A) (A)
                 (A) (A) (A) (A) (A) (A) (A) (A) (A) (A) (A) (A)
                 (A) (A) (A) (A) (A) (A) (A) (A) (A) (A) (A) (A)
                 (A) (A) (A) (A) (A) (A) (A) (A) (A) (A) (A) (A)
                 (A) (A) (A) (A) (A) (A) (A) (A) (A) (A) (A) (A)
                 (A) (A) (A) (A) (A) (A) (A) (A) (A) (A) (A) (A)
                 (A) (A) (A) (A) (A) (A) (A) (A) (A) (A) (A) (A)
                 (A) (A) (A) (A) (A) (A) (A) (A) (A) (A) (A) (A)
                 (A) (A) (A) (A) (A) (A) (A) (A) (A) (A) (A) (A)
                 (A) (A) (A) (A) (A) (A) (A) (A) (A) (A) (A) (A)
                 (A) (A) (A) (A) (A) (A) (A) (A) (A) (A) (A) (A)
                 (A) (A) (A) (A) (A) (A) (A) (A) (A) (A) (A)
 <S**2> of initial guess= 0.7645
 Harris functional with IExCor=  402 diagonalized for initial guess.
 ExpMin= 4.38D-02 ExpMax= 8.59D+03 ExpMxC= 1.30D+03 IAcc=2 IRadAn=         4 AccDes= 0.00D+00
 HarFok:  IExCor= 402 AccDes= 0.00D+00 IRadAn=         4 IDoV=1
 ScaDFX=  1.000000  1.000000  1.000000  1.000000
 Requested convergence on RMS density matrix=1.00D-08 within1000 cycles.
 Requested convergence on MAX density matrix=1.00D-06.
 Requested convergence on             energy=1.00D-06.
 No special actions if energy rises.
 SCF Done:  E(UB+HF-LYP) =  -303.662089976     A.U. after   16 cycles
             Convg  =    0.6016D-08             -V/T =  2.0033
             S**2   =   0.7561
 Annihilation of the first spin contaminant:
 S**2 before annihilation     0.7561,   after     0.7500
 ***** Axes restored to original set *****
 -------------------------------------------------------------------
 Center     Atomic                   Forces (Hartrees/Bohr)
 Number     Number              X              Y              Z
 -------------------------------------------------------------------
    1          6           0.028980952    0.014880188    0.000000185
    2          8          -0.008786937   -0.009106014   -0.000000246
    3          6          -0.000052143   -0.034551957   -0.000000190
    4          1          -0.006808773   -0.001272107    0.000000508
    5          1          -0.006657745    0.011983266    0.000000744
    6          1           0.005735962    0.014060854   -0.000000621
    7          8          -0.021911679    0.039758099    0.000000233
    8          8           0.009500363   -0.035752328   -0.000000614
 -------------------------------------------------------------------
 Cartesian Forces:  Max     0.039758099 RMS     0.016216132

 GradGradGradGradGradGradGradGradGradGradGradGradGradGradGradGradGradGrad
 Berny optimization.
 Internal  Forces:  Max     0.036958824 RMS     0.011007489
 Search for a local minimum.
 Step number   2 out of a maximum of 100
 All quantities printed in internal units (Hartrees-Bohrs-Radians)
 Update second derivatives using D2CorX and points  1  2
 Trust test= 1.15D+00 RLast= 3.00D-01 DXMaxT set to 4.24D-01
     Eigenvalues ---    0.00867   0.00867   0.00934   0.01096   0.02380
     Eigenvalues ---    0.11606   0.16000   0.16659   0.24761   0.25000
     Eigenvalues ---    0.31224   0.33421   0.34935   0.35454   0.38404
     Eigenvalues ---    0.53105   0.56802   1.122981000.000001000.00000
     Eigenvalues --- 1000.000001000.00000
 RFO step:  Lambda=-8.21092609D-03.
 Quartic linear search produced a step of  0.45096.
 Iteration  1 RMS(Cart)=  0.05707109 RMS(Int)=  0.00308772
 Iteration  2 RMS(Cart)=  0.00310049 RMS(Int)=  0.00000185
 Iteration  3 RMS(Cart)=  0.00000279 RMS(Int)=  0.00000026
 Iteration  4 RMS(Cart)=  0.00000000 RMS(Int)=  0.00000026
 Variable       Old X    -DE/DX   Delta X   Delta X   Delta X     New X
                                 (Linear)    (Quad)   (Total)
    R1        2.27223   0.01253   0.01569   0.00890   0.02459   2.29682
    R2        2.74267  -0.00852  -0.03492  -0.01794  -0.05286   2.68981
    R3        2.66506  -0.01889  -0.02963  -0.05358  -0.08321   2.58185
    R4        2.03829  -0.00117  -0.00875  -0.00021  -0.00896   2.02933
    R5        2.03571   0.00010  -0.00680   0.00387  -0.00292   2.03278
    R6        1.84295   0.00692   0.01300   0.01154   0.02453   1.86749
    R7        2.57997   0.03696   0.04032   0.06530   0.10562   2.68560
    A1        2.24905   0.00163  -0.00285   0.01069   0.00784   2.25689
    A2        2.10717  -0.00246   0.04658  -0.03965   0.00693   2.11410
    A3        1.92696   0.00083  -0.04373   0.02896  -0.01477   1.91219
    A4        2.01036   0.00826   0.03714   0.04712   0.08426   2.09462
    A5        1.94660   0.01133   0.02818   0.07911   0.10728   2.05388
    A6        2.32622  -0.01958  -0.06532  -0.12622  -0.19154   2.13468
    A7        1.92370   0.00863  -0.03346   0.06679   0.03333   1.95703
    A8        1.80217  -0.00033  -0.04891   0.02831  -0.02060   1.78157
    D1       -3.14157   0.00000  -0.00002   0.00006   0.00004  -3.14153
    D2        0.00002   0.00000  -0.00002   0.00006   0.00004   0.00006
    D3        0.00003   0.00000   0.00002  -0.00009  -0.00007  -0.00004
    D4       -3.14156   0.00000   0.00001  -0.00009  -0.00007   3.14155
    D5        0.00002   0.00000   0.00001  -0.00010  -0.00009  -0.00007
    D6       -3.14158   0.00000  -0.00002   0.00003   0.00001  -3.14157
    D7        0.00000   0.00000   0.00000  -0.00002  -0.00002  -0.00002
         Item               Value     Threshold  Converged?
 Maximum Force            0.036959     0.000450     NO 
 RMS     Force            0.011007     0.000300     NO 
 Maximum Displacement     0.138146     0.001800     NO 
 RMS     Displacement     0.057678     0.001200     NO 
 Predicted change in Energy=-6.533904D-03
 GradGradGradGradGradGradGradGradGradGradGradGradGradGradGradGradGradGrad

                          Input orientation:                          
 ---------------------------------------------------------------------
 Center     Atomic     Atomic              Coordinates (Angstroms)
 Number     Number      Type              X           Y           Z
 ---------------------------------------------------------------------
    1          6             0       -0.564255   -0.183981    0.000009
    2          8             0       -1.520473   -0.934253    0.000005
    3          6             0       -0.534648    1.239099   -0.000010
    4          1             0       -0.213599   -2.318750   -0.000015
    5          1             0        0.406208    1.756788   -0.000065
    6          1             0       -1.476652    1.758485    0.000032
    7          8             0        0.713360   -0.668082   -0.000099
    8          8             0        0.747515   -2.088828   -0.000114
 ---------------------------------------------------------------------
                    Distance matrix (angstroms):
                    1          2          3          4          5
     1  C    0.000000
     2  O    1.215426   0.000000
     3  C    1.423388   2.386484   0.000000
     4  H    2.163377   1.903879   3.572305   0.000000
     5  H    2.169881   3.309652   1.073877   4.122398   0.000000
     6  H    2.146077   2.693095   1.075702   4.268390   1.882861
     7  O    1.366255   2.249635   2.279224   1.893135   2.444245
     8  O    2.312830   2.544958   3.566376   0.988232   3.860732
                    6          7          8
     6  H    0.000000
     7  O    3.268697   0.000000
     8  O    4.443955   1.421156   0.000000
 Stoichiometry    C2H3O3(2)
 Framework group  C1[X(C2H3O3)]
 Deg. of freedom    18
 Full point group                 C1      NOp   1
 Largest Abelian subgroup         C1      NOp   1
 Largest concise Abelian subgroup C1      NOp   1
                         Standard orientation:                         
 ---------------------------------------------------------------------
 Center     Atomic     Atomic              Coordinates (Angstroms)
 Number     Number      Type              X           Y           Z
 ---------------------------------------------------------------------
    1          6             0        0.494726    0.149362    0.000053
    2          8             0        0.236199    1.336975    0.000049
    3          6             0        1.762641   -0.497496    0.000034
    4          1             0       -1.579459    0.764141    0.000029
    5          1             0        1.818531   -1.569918   -0.000021
    6          1             0        2.640653    0.123977    0.000076
    7          8             0       -0.497794   -0.789551   -0.000055
    8          8             0       -1.791397   -0.201098   -0.000070
 ---------------------------------------------------------------------
 Rotational constants (GHZ):     11.1535392      4.6200115      3.2668282
 Standard basis: 6-311+G(3df,2p) (5D, 7F)
 There are   222 symmetry adapted basis functions of A   symmetry.
 Integral buffers will be    262144 words long.
 Raffenetti 2 integral format.
 Two-electron integral symmetry is turned on.
   222 basis functions,   323 primitive gaussians,   252 cartesian basis functions
    20 alpha electrons       19 beta electrons
       nuclear repulsion energy       173.3709153524 Hartrees.
 NAtoms=    8 NActive=    8 NUniq=    8 SFac= 1.00D+00 NAtFMM=   60 Big=F
 One-electron integrals computed using PRISM.
 NBasis=   222 RedAO= T  NBF=   222
 NBsUse=   222 1.00D-06 NBFU=   222
 Initial guess read from the read-write file:
 Initial guess orbital symmetries:
 Alpha Orbitals:
       Occupied  (A) (A) (A) (A) (A) (A) (A) (A) (A) (A) (A) (A)
                 (A) (A) (A) (A) (A) (A) (A) (A)
       Virtual   (A) (A) (A) (A) (A) (A) (A) (A) (A) (A) (A) (A)
                 (A) (A) (A) (A) (A) (A) (A) (A) (A) (A) (A) (A)
                 (A) (A) (A) (A) (A) (A) (A) (A) (A) (A) (A) (A)
                 (A) (A) (A) (A) (A) (A) (A) (A) (A) (A) (A) (A)
                 (A) (A) (A) (A) (A) (A) (A) (A) (A) (A) (A) (A)
                 (A) (A) (A) (A) (A) (A) (A) (A) (A) (A) (A) (A)
                 (A) (A) (A) (A) (A) (A) (A) (A) (A) (A) (A) (A)
                 (A) (A) (A) (A) (A) (A) (A) (A) (A) (A) (A) (A)
                 (A) (A) (A) (A) (A) (A) (A) (A) (A) (A) (A) (A)
                 (A) (A) (A) (A) (A) (A) (A) (A) (A) (A) (A) (A)
                 (A) (A) (A) (A) (A) (A) (A) (A) (A) (A) (A) (A)
                 (A) (A) (A) (A) (A) (A) (A) (A) (A) (A) (A) (A)
                 (A) (A) (A) (A) (A) (A) (A) (A) (A) (A) (A) (A)
                 (A) (A) (A) (A) (A) (A) (A) (A) (A) (A) (A) (A)
                 (A) (A) (A) (A) (A) (A) (A) (A) (A) (A) (A) (A)
                 (A) (A) (A) (A) (A) (A) (A) (A) (A) (A) (A) (A)
                 (A) (A) (A) (A) (A) (A) (A) (A) (A) (A)
 Beta  Orbitals:
       Occupied  (A) (A) (A) (A) (A) (A) (A) (A) (A) (A) (A) (A)
                 (A) (A) (A) (A) (A) (A) (A)
       Virtual   (A) (A) (A) (A) (A) (A) (A) (A) (A) (A) (A) (A)
                 (A) (A) (A) (A) (A) (A) (A) (A) (A) (A) (A) (A)
                 (A) (A) (A) (A) (A) (A) (A) (A) (A) (A) (A) (A)
                 (A) (A) (A) (A) (A) (A) (A) (A) (A) (A) (A) (A)
                 (A) (A) (A) (A) (A) (A) (A) (A) (A) (A) (A) (A)
                 (A) (A) (A) (A) (A) (A) (A) (A) (A) (A) (A) (A)
                 (A) (A) (A) (A) (A) (A) (A) (A) (A) (A) (A) (A)
                 (A) (A) (A) (A) (A) (A) (A) (A) (A) (A) (A) (A)
                 (A) (A) (A) (A) (A) (A) (A) (A) (A) (A) (A) (A)
                 (A) (A) (A) (A) (A) (A) (A) (A) (A) (A) (A) (A)
                 (A) (A) (A) (A) (A) (A) (A) (A) (A) (A) (A) (A)
                 (A) (A) (A) (A) (A) (A) (A) (A) (A) (A) (A) (A)
                 (A) (A) (A) (A) (A) (A) (A) (A) (A) (A) (A) (A)
                 (A) (A) (A) (A) (A) (A) (A) (A) (A) (A) (A) (A)
                 (A) (A) (A) (A) (A) (A) (A) (A) (A) (A) (A) (A)
                 (A) (A) (A) (A) (A) (A) (A) (A) (A) (A) (A) (A)
                 (A) (A) (A) (A) (A) (A) (A) (A) (A) (A) (A)
 <S**2> of initial guess= 0.7560
 Harris functional with IExCor=  402 diagonalized for initial guess.
 ExpMin= 4.38D-02 ExpMax= 8.59D+03 ExpMxC= 1.30D+03 IAcc=2 IRadAn=         4 AccDes= 0.00D+00
 HarFok:  IExCor= 402 AccDes= 0.00D+00 IRadAn=         4 IDoV=1
 ScaDFX=  1.000000  1.000000  1.000000  1.000000
 Requested convergence on RMS density matrix=1.00D-08 within1000 cycles.
 Requested convergence on MAX density matrix=1.00D-06.
 Requested convergence on             energy=1.00D-06.
 No special actions if energy rises.
 SCF Done:  E(UB+HF-LYP) =  -303.668121923     A.U. after   13 cycles
             Convg  =    0.6142D-08             -V/T =  2.0034
             S**2   =   0.7560
 Annihilation of the first spin contaminant:
 S**2 before annihilation     0.7560,   after     0.7500
 ***** Axes restored to original set *****
 -------------------------------------------------------------------
 Center     Atomic                   Forces (Hartrees/Bohr)
 Number     Number              X              Y              Z
 -------------------------------------------------------------------
    1          6           0.004110412   -0.009646980   -0.000013207
    2          8          -0.001953228    0.001255926    0.000006374
    3          6          -0.005373844    0.002107467    0.000003299
    4          1           0.003735824    0.003748065   -0.000001820
    5          1           0.001639210    0.003067177    0.000000003
    6          1          -0.000350103    0.002750416    0.000000027
    7          8           0.003250070   -0.000755201    0.000004497
    8          8          -0.005058342   -0.002526869    0.000000826
 -------------------------------------------------------------------
 Cartesian Forces:  Max     0.009646980 RMS     0.003159401

 GradGradGradGradGradGradGradGradGradGradGradGradGradGradGradGradGradGrad
 Berny optimization.
 Internal  Forces:  Max     0.008635364 RMS     0.003498063
 Search for a local minimum.
 Step number   3 out of a maximum of 100
 All quantities printed in internal units (Hartrees-Bohrs-Radians)
 Update second derivatives using D2CorX and points  1  2  3
 Trust test= 9.23D-01 RLast= 2.82D-01 DXMaxT set to 6.00D-01
     Eigenvalues ---    0.00867   0.00867   0.00934   0.01096   0.02380
     Eigenvalues ---    0.10319   0.16022   0.16781   0.24967   0.26225
     Eigenvalues ---    0.31955   0.34438   0.35239   0.36825   0.38355
     Eigenvalues ---    0.54489   0.56311   1.119791000.000001000.00000
     Eigenvalues --- 1000.000001000.00000
 RFO step:  Lambda=-9.86505015D-04.
 Quartic linear search produced a step of -0.02358.
 Iteration  1 RMS(Cart)=  0.03473292 RMS(Int)=  0.00090634
 Iteration  2 RMS(Cart)=  0.00080442 RMS(Int)=  0.00000115
 Iteration  3 RMS(Cart)=  0.00000024 RMS(Int)=  0.00000114
 Variable       Old X    -DE/DX   Delta X   Delta X   Delta X     New X
                                 (Linear)    (Quad)   (Total)
    R1        2.29682   0.00076  -0.00058   0.00296   0.00238   2.29920
    R2        2.68981   0.00784   0.00125   0.01830   0.01955   2.70936
    R3        2.58185   0.00164   0.00196  -0.00371  -0.00175   2.58010
    R4        2.02933   0.00291   0.00021   0.00738   0.00759   2.03692
    R5        2.03278   0.00164   0.00007   0.00431   0.00438   2.03716
    R6        1.86749  -0.00451  -0.00058  -0.00570  -0.00628   1.86121
    R7        2.68560  -0.00125  -0.00249   0.00800   0.00551   2.69111
    A1        2.25689  -0.00527  -0.00018  -0.01989  -0.02008   2.23682
    A2        2.11410  -0.00023  -0.00016  -0.00057  -0.00073   2.11337
    A3        1.91219   0.00550   0.00035   0.02046   0.02081   1.93300
    A4        2.09462   0.00106  -0.00199   0.01433   0.01234   2.10696
    A5        2.05388   0.00175  -0.00253   0.02086   0.01834   2.07222
    A6        2.13468  -0.00280   0.00452  -0.03519  -0.03068   2.10400
    A7        1.95703  -0.00864  -0.00079  -0.03043  -0.03122   1.92581
    A8        1.78157  -0.00518   0.00049  -0.03331  -0.03282   1.74875
    D1       -3.14153   0.00000   0.00000  -0.00033  -0.00033   3.14133
    D2        0.00006   0.00000   0.00000  -0.00031  -0.00031  -0.00025
    D3       -0.00004   0.00000   0.00000   0.00030   0.00030   0.00027
    D4        3.14155   0.00000   0.00000   0.00032   0.00032  -3.14131
    D5       -0.00007   0.00000   0.00000   0.00045   0.00046   0.00039
    D6       -3.14157   0.00000   0.00000  -0.00011  -0.00012   3.14150
    D7       -0.00002   0.00000   0.00000   0.00010   0.00010   0.00008
         Item               Value     Threshold  Converged?
 Maximum Force            0.008635     0.000450     NO 
 RMS     Force            0.003498     0.000300     NO 
 Maximum Displacement     0.084405     0.001800     NO 
 RMS     Displacement     0.034713     0.001200     NO 
 Predicted change in Energy=-4.993047D-04
 GradGradGradGradGradGradGradGradGradGradGradGradGradGradGradGradGradGrad

                          Input orientation:                          
 ---------------------------------------------------------------------
 Center     Atomic     Atomic              Coordinates (Angstroms)
 Number     Number      Type              X           Y           Z
 ---------------------------------------------------------------------
    1          6             0       -0.538303   -0.198794   -0.000164
    2          8             0       -1.495224   -0.950207    0.000128
    3          6             0       -0.537808    1.234938   -0.000049
    4          1             0       -0.243102   -2.274085   -0.000184
    5          1             0        0.389019    1.785253   -0.000105
    6          1             0       -1.482941    1.753440    0.000109
    7          8             0        0.738274   -0.683017   -0.000003
    8          8             0        0.727542   -2.107051    0.000011
 ---------------------------------------------------------------------
                    Distance matrix (angstroms):
                    1          2          3          4          5
     1  C    0.000000
     2  O    1.216683   0.000000
     3  C    1.433733   2.385687   0.000000
     4  H    2.096181   1.822214   3.521377   0.000000
     5  H    2.190062   3.321612   1.077893   4.108260   0.000000
     6  H    2.168769   2.703674   1.078017   4.214043   1.872231
     7  O    1.365328   2.249423   2.303679   1.869385   2.492856
     8  O    2.289936   2.505788   3.573514   0.984911   3.906997
                    6          7          8
     6  H    0.000000
     7  O    3.296986   0.000000
     8  O    4.448553   1.424075   0.000000
 Stoichiometry    C2H3O3(2)
 Framework group  C1[X(C2H3O3)]
 Deg. of freedom    18
 Full point group                 C1      NOp   1
 Largest Abelian subgroup         C1      NOp   1
 Largest concise Abelian subgroup C1      NOp   1
                         Standard orientation:                         
 ---------------------------------------------------------------------
 Center     Atomic     Atomic              Coordinates (Angstroms)
 Number     Number      Type              X           Y           Z
 ---------------------------------------------------------------------
    1          6             0       -0.482167    0.140928    0.000155
    2          8             0       -0.208511    1.326436   -0.000137
    3          6             0       -1.779851   -0.468667    0.000039
    4          1             0        1.521923    0.755419    0.000175
    5          1             0       -1.884248   -1.541493    0.000095
    6          1             0       -2.650784    0.166626   -0.000118
    7          8             0        0.498554   -0.808971   -0.000007
    8          8             0        1.783109   -0.194229   -0.000021
 ---------------------------------------------------------------------
 Rotational constants (GHZ):     11.2611382      4.6191937      3.2755851
 Standard basis: 6-311+G(3df,2p) (5D, 7F)
 There are   222 symmetry adapted basis functions of A   symmetry.
 Integral buffers will be    262144 words long.
 Raffenetti 2 integral format.
 Two-electron integral symmetry is turned on.
   222 basis functions,   323 primitive gaussians,   252 cartesian basis functions
    20 alpha electrons       19 beta electrons
       nuclear repulsion energy       173.4969265874 Hartrees.
 NAtoms=    8 NActive=    8 NUniq=    8 SFac= 1.00D+00 NAtFMM=   60 Big=F
 One-electron integrals computed using PRISM.
 NBasis=   222 RedAO= T  NBF=   222
 NBsUse=   222 1.00D-06 NBFU=   222
 Initial guess read from the read-write file:
 Initial guess orbital symmetries:
 Alpha Orbitals:
       Occupied  (A) (A) (A) (A) (A) (A) (A) (A) (A) (A) (A) (A)
                 (A) (A) (A) (A) (A) (A) (A) (A)
       Virtual   (A) (A) (A) (A) (A) (A) (A) (A) (A) (A) (A) (A)
                 (A) (A) (A) (A) (A) (A) (A) (A) (A) (A) (A) (A)
                 (A) (A) (A) (A) (A) (A) (A) (A) (A) (A) (A) (A)
                 (A) (A) (A) (A) (A) (A) (A) (A) (A) (A) (A) (A)
                 (A) (A) (A) (A) (A) (A) (A) (A) (A) (A) (A) (A)
                 (A) (A) (A) (A) (A) (A) (A) (A) (A) (A) (A) (A)
                 (A) (A) (A) (A) (A) (A) (A) (A) (A) (A) (A) (A)
                 (A) (A) (A) (A) (A) (A) (A) (A) (A) (A) (A) (A)
                 (A) (A) (A) (A) (A) (A) (A) (A) (A) (A) (A) (A)
                 (A) (A) (A) (A) (A) (A) (A) (A) (A) (A) (A) (A)
                 (A) (A) (A) (A) (A) (A) (A) (A) (A) (A) (A) (A)
                 (A) (A) (A) (A) (A) (A) (A) (A) (A) (A) (A) (A)
                 (A) (A) (A) (A) (A) (A) (A) (A) (A) (A) (A) (A)
                 (A) (A) (A) (A) (A) (A) (A) (A) (A) (A) (A) (A)
                 (A) (A) (A) (A) (A) (A) (A) (A) (A) (A) (A) (A)
                 (A) (A) (A) (A) (A) (A) (A) (A) (A) (A) (A) (A)
                 (A) (A) (A) (A) (A) (A) (A) (A) (A) (A)
 Beta  Orbitals:
       Occupied  (A) (A) (A) (A) (A) (A) (A) (A) (A) (A) (A) (A)
                 (A) (A) (A) (A) (A) (A) (A)
       Virtual   (A) (A) (A) (A) (A) (A) (A) (A) (A) (A) (A) (A)
                 (A) (A) (A) (A) (A) (A) (A) (A) (A) (A) (A) (A)
                 (A) (A) (A) (A) (A) (A) (A) (A) (A) (A) (A) (A)
                 (A) (A) (A) (A) (A) (A) (A) (A) (A) (A) (A) (A)
                 (A) (A) (A) (A) (A) (A) (A) (A) (A) (A) (A) (A)
                 (A) (A) (A) (A) (A) (A) (A) (A) (A) (A) (A) (A)
                 (A) (A) (A) (A) (A) (A) (A) (A) (A) (A) (A) (A)
                 (A) (A) (A) (A) (A) (A) (A) (A) (A) (A) (A) (A)
                 (A) (A) (A) (A) (A) (A) (A) (A) (A) (A) (A) (A)
                 (A) (A) (A) (A) (A) (A) (A) (A) (A) (A) (A) (A)
                 (A) (A) (A) (A) (A) (A) (A) (A) (A) (A) (A) (A)
                 (A) (A) (A) (A) (A) (A) (A) (A) (A) (A) (A) (A)
                 (A) (A) (A) (A) (A) (A) (A) (A) (A) (A) (A) (A)
                 (A) (A) (A) (A) (A) (A) (A) (A) (A) (A) (A) (A)
                 (A) (A) (A) (A) (A) (A) (A) (A) (A) (A) (A) (A)
                 (A) (A) (A) (A) (A) (A) (A) (A) (A) (A) (A) (A)
                 (A) (A) (A) (A) (A) (A) (A) (A) (A) (A) (A)
 <S**2> of initial guess= 0.7619
 Harris functional with IExCor=  402 diagonalized for initial guess.
 ExpMin= 4.38D-02 ExpMax= 8.59D+03 ExpMxC= 1.30D+03 IAcc=2 IRadAn=         4 AccDes= 0.00D+00
 HarFok:  IExCor= 402 AccDes= 0.00D+00 IRadAn=         4 IDoV=1
 ScaDFX=  1.000000  1.000000  1.000000  1.000000
 Requested convergence on RMS density matrix=1.00D-08 within1000 cycles.
 Requested convergence on MAX density matrix=1.00D-06.
 Requested convergence on             energy=1.00D-06.
 No special actions if energy rises.
 SCF Done:  E(UB+HF-LYP) =  -303.668524438     A.U. after   16 cycles
             Convg  =    0.5835D-08             -V/T =  2.0035
             S**2   =   0.7559
 Annihilation of the first spin contaminant:
 S**2 before annihilation     0.7559,   after     0.7500
 ***** Axes restored to original set *****
 -------------------------------------------------------------------
 Center     Atomic                   Forces (Hartrees/Bohr)
 Number     Number              X              Y              Z
 -------------------------------------------------------------------
    1          6           0.001976151    0.001384319    0.000068001
    2          8          -0.001102169    0.001209684   -0.000032677
    3          6          -0.001425058   -0.000200473   -0.000014738
    4          1          -0.000151551   -0.001767545    0.000007978
    5          1           0.000507352    0.000018147   -0.000000303
    6          1          -0.000199097   -0.000502732   -0.000001020
    7          8          -0.000233663   -0.000450846   -0.000025312
    8          8           0.000628034    0.000309446   -0.000001930
 -------------------------------------------------------------------
 Cartesian Forces:  Max     0.001976151 RMS     0.000791164

 GradGradGradGradGradGradGradGradGradGradGradGradGradGradGradGradGradGrad
 Berny optimization.
 Internal  Forces:  Max     0.004507842 RMS     0.001414665
 Search for a local minimum.
 Step number   4 out of a maximum of 100
 All quantities printed in internal units (Hartrees-Bohrs-Radians)
 Update second derivatives using D2CorX and points  1  2  3  4
 Trust test= 8.06D-01 RLast= 6.97D-02 DXMaxT set to 6.00D-01
     Eigenvalues ---    0.00867   0.00867   0.00935   0.01096   0.02380
     Eigenvalues ---    0.10351   0.16080   0.17553   0.22990   0.28241
     Eigenvalues ---    0.33887   0.35036   0.35676   0.37291   0.39610
     Eigenvalues ---    0.55509   0.56326   1.119121000.000001000.00000
     Eigenvalues --- 1000.000001000.00000
 RFO step:  Lambda=-9.42702398D-05.
 Quartic linear search produced a step of -0.16552.
 Iteration  1 RMS(Cart)=  0.01179199 RMS(Int)=  0.00006521
 Iteration  2 RMS(Cart)=  0.00005402 RMS(Int)=  0.00000406
 Iteration  3 RMS(Cart)=  0.00000000 RMS(Int)=  0.00000406
 Variable       Old X    -DE/DX   Delta X   Delta X   Delta X     New X
                                 (Linear)    (Quad)   (Total)
    R1        2.29920   0.00012  -0.00039   0.00072   0.00033   2.29952
    R2        2.70936  -0.00069  -0.00324   0.00312  -0.00011   2.70925
    R3        2.58010   0.00090   0.00029   0.00214   0.00243   2.58252
    R4        2.03692   0.00045  -0.00126   0.00286   0.00160   2.03852
    R5        2.03716  -0.00007  -0.00072   0.00077   0.00005   2.03721
    R6        1.86121   0.00045   0.00104  -0.00098   0.00006   1.86127
    R7        2.69111   0.00145  -0.00091   0.00254   0.00162   2.69274
    A1        2.23682  -0.00246   0.00332  -0.01356  -0.01024   2.22658
    A2        2.11337   0.00129   0.00012   0.00573   0.00585   2.11922
    A3        1.93300   0.00117  -0.00344   0.00783   0.00439   1.93738
    A4        2.10696   0.00003  -0.00204   0.00311   0.00107   2.10803
    A5        2.07222  -0.00056  -0.00303   0.00073  -0.00231   2.06991
    A6        2.10400   0.00053   0.00508  -0.00384   0.00124   2.10524
    A7        1.92581   0.00451   0.00517   0.00480   0.00997   1.93577
    A8        1.74875   0.00319   0.00543   0.00628   0.01172   1.76047
    D1        3.14133   0.00002   0.00005   0.00140   0.00145  -3.14040
    D2       -0.00025   0.00002   0.00005   0.00130   0.00135   0.00110
    D3        0.00027  -0.00002  -0.00005  -0.00137  -0.00142  -0.00115
    D4       -3.14131  -0.00002  -0.00005  -0.00147  -0.00152   3.14035
    D5        0.00039  -0.00003  -0.00008  -0.00206  -0.00214  -0.00176
    D6        3.14150   0.00000   0.00002   0.00048   0.00052  -3.14117
    D7        0.00008  -0.00001  -0.00002  -0.00047  -0.00049  -0.00041
         Item               Value     Threshold  Converged?
 Maximum Force            0.004508     0.000450     NO 
 RMS     Force            0.001415     0.000300     NO 
 Maximum Displacement     0.038272     0.001800     NO 
 RMS     Displacement     0.011800     0.001200     NO 
 Predicted change in Energy=-6.424280D-05
 GradGradGradGradGradGradGradGradGradGradGradGradGradGradGradGradGradGrad

                          Input orientation:                          
 ---------------------------------------------------------------------
 Center     Atomic     Atomic              Coordinates (Angstroms)
 Number     Number      Type              X           Y           Z
 ---------------------------------------------------------------------
    1          6             0       -0.539210   -0.195234    0.000617
    2          8             0       -1.504128   -0.936632   -0.000440
    3          6             0       -0.538293    1.238438    0.000139
    4          1             0       -0.234617   -2.294338    0.000635
    5          1             0        0.388834    1.789905    0.000105
    6          1             0       -1.484491    1.755046   -0.000268
    7          8             0        0.736286   -0.685888   -0.000483
    8          8             0        0.733077   -2.110819   -0.000562
 ---------------------------------------------------------------------
                    Distance matrix (angstroms):
                    1          2          3          4          5
     1  C    0.000000
     2  O    1.216856   0.000000
     3  C    1.433672   2.379866   0.000000
     4  H    2.121088   1.858770   3.545804   0.000000
     5  H    2.191357   3.319233   1.078740   4.131553   0.000000
     6  H    2.167291   2.691750   1.078043   4.237889   1.873650
     7  O    1.366613   2.254401   2.308156   1.878767   2.500055
     8  O    2.299604   2.526619   3.582444   0.984943   3.915885
                    6          7          8
     6  H    0.000000
     7  O    3.300002   0.000000
     8  O    4.456739   1.424934   0.000000
 Stoichiometry    C2H3O3(2)
 Framework group  C1[X(C2H3O3)]
 Deg. of freedom    18
 Full point group                 C1      NOp   1
 Largest Abelian subgroup         C1      NOp   1
 Largest concise Abelian subgroup C1      NOp   1
                         Standard orientation:                         
 ---------------------------------------------------------------------
 Center     Atomic     Atomic              Coordinates (Angstroms)
 Number     Number      Type              X           Y           Z
 ---------------------------------------------------------------------
    1          6             0        0.484036    0.137711    0.000793
    2          8             0        0.228760    1.327489   -0.000264
    3          6             0        1.778435   -0.478688    0.000315
    4          1             0       -1.542511    0.763908    0.000811
    5          1             0        1.878405   -1.552786    0.000281
    6          1             0        2.651265    0.154039   -0.000092
    7          8             0       -0.506744   -0.803558   -0.000307
    8          8             0       -1.792264   -0.188843   -0.000386
 ---------------------------------------------------------------------
 Rotational constants (GHZ):     11.2577935      4.5852494      3.2581997
 Standard basis: 6-311+G(3df,2p) (5D, 7F)
 There are   222 symmetry adapted basis functions of A   symmetry.
 Integral buffers will be    262144 words long.
 Raffenetti 2 integral format.
 Two-electron integral symmetry is turned on.
   222 basis functions,   323 primitive gaussians,   252 cartesian basis functions
    20 alpha electrons       19 beta electrons
       nuclear repulsion energy       173.1708511922 Hartrees.
 NAtoms=    8 NActive=    8 NUniq=    8 SFac= 1.00D+00 NAtFMM=   60 Big=F
 One-electron integrals computed using PRISM.
 NBasis=   222 RedAO= T  NBF=   222
 NBsUse=   222 1.00D-06 NBFU=   222
 Initial guess read from the read-write file:
 Initial guess orbital symmetries:
 Alpha Orbitals:
       Occupied  (A) (A) (A) (A) (A) (A) (A) (A) (A) (A) (A) (A)
                 (A) (A) (A) (A) (A) (A) (A) (A)
       Virtual   (A) (A) (A) (A) (A) (A) (A) (A) (A) (A) (A) (A)
                 (A) (A) (A) (A) (A) (A) (A) (A) (A) (A) (A) (A)
                 (A) (A) (A) (A) (A) (A) (A) (A) (A) (A) (A) (A)
                 (A) (A) (A) (A) (A) (A) (A) (A) (A) (A) (A) (A)
                 (A) (A) (A) (A) (A) (A) (A) (A) (A) (A) (A) (A)
                 (A) (A) (A) (A) (A) (A) (A) (A) (A) (A) (A) (A)
                 (A) (A) (A) (A) (A) (A) (A) (A) (A) (A) (A) (A)
                 (A) (A) (A) (A) (A) (A) (A) (A) (A) (A) (A) (A)
                 (A) (A) (A) (A) (A) (A) (A) (A) (A) (A) (A) (A)
                 (A) (A) (A) (A) (A) (A) (A) (A) (A) (A) (A) (A)
                 (A) (A) (A) (A) (A) (A) (A) (A) (A) (A) (A) (A)
                 (A) (A) (A) (A) (A) (A) (A) (A) (A) (A) (A) (A)
                 (A) (A) (A) (A) (A) (A) (A) (A) (A) (A) (A) (A)
                 (A) (A) (A) (A) (A) (A) (A) (A) (A) (A) (A) (A)
                 (A) (A) (A) (A) (A) (A) (A) (A) (A) (A) (A) (A)
                 (A) (A) (A) (A) (A) (A) (A) (A) (A) (A) (A) (A)
                 (A) (A) (A) (A) (A) (A) (A) (A) (A) (A)
 Beta  Orbitals:
       Occupied  (A) (A) (A) (A) (A) (A) (A) (A) (A) (A) (A) (A)
                 (A) (A) (A) (A) (A) (A) (A)
       Virtual   (A) (A) (A) (A) (A) (A) (A) (A) (A) (A) (A) (A)
                 (A) (A) (A) (A) (A) (A) (A) (A) (A) (A) (A) (A)
                 (A) (A) (A) (A) (A) (A) (A) (A) (A) (A) (A) (A)
                 (A) (A) (A) (A) (A) (A) (A) (A) (A) (A) (A) (A)
                 (A) (A) (A) (A) (A) (A) (A) (A) (A) (A) (A) (A)
                 (A) (A) (A) (A) (A) (A) (A) (A) (A) (A) (A) (A)
                 (A) (A) (A) (A) (A) (A) (A) (A) (A) (A) (A) (A)
                 (A) (A) (A) (A) (A) (A) (A) (A) (A) (A) (A) (A)
                 (A) (A) (A) (A) (A) (A) (A) (A) (A) (A) (A) (A)
                 (A) (A) (A) (A) (A) (A) (A) (A) (A) (A) (A) (A)
                 (A) (A) (A) (A) (A) (A) (A) (A) (A) (A) (A) (A)
                 (A) (A) (A) (A) (A) (A) (A) (A) (A) (A) (A) (A)
                 (A) (A) (A) (A) (A) (A) (A) (A) (A) (A) (A) (A)
                 (A) (A) (A) (A) (A) (A) (A) (A) (A) (A) (A) (A)
                 (A) (A) (A) (A) (A) (A) (A) (A) (A) (A) (A) (A)
                 (A) (A) (A) (A) (A) (A) (A) (A) (A) (A) (A) (A)
                 (A) (A) (A) (A) (A) (A) (A) (A) (A) (A) (A)
 <S**2> of initial guess= 0.7618
 Harris functional with IExCor=  402 diagonalized for initial guess.
 ExpMin= 4.38D-02 ExpMax= 8.59D+03 ExpMxC= 1.30D+03 IAcc=2 IRadAn=         4 AccDes= 0.00D+00
 HarFok:  IExCor= 402 AccDes= 0.00D+00 IRadAn=         4 IDoV=1
 ScaDFX=  1.000000  1.000000  1.000000  1.000000
 Requested convergence on RMS density matrix=1.00D-08 within1000 cycles.
 Requested convergence on MAX density matrix=1.00D-06.
 Requested convergence on             energy=1.00D-06.
 No special actions if energy rises.
 SCF Done:  E(UB+HF-LYP) =  -303.668581249     A.U. after   16 cycles
             Convg  =    0.5834D-08             -V/T =  2.0035
             S**2   =   0.7560
 Annihilation of the first spin contaminant:
 S**2 before annihilation     0.7560,   after     0.7500
 ***** Axes restored to original set *****
 -------------------------------------------------------------------
 Center     Atomic                   Forces (Hartrees/Bohr)
 Number     Number              X              Y              Z
 -------------------------------------------------------------------
    1          6           0.000585360   -0.000193447   -0.000305212
    2          8           0.000723456    0.000140210    0.000146254
    3          6           0.000312232    0.000211652    0.000065701
    4          1           0.000553504   -0.000018150   -0.000035878
    5          1          -0.000032867   -0.000109631    0.000001496
    6          1          -0.000125899   -0.000518464    0.000004737
    7          8          -0.000986276    0.000243673    0.000113630
    8          8          -0.001029510    0.000244156    0.000009272
 -------------------------------------------------------------------
 Cartesian Forces:  Max     0.001029510 RMS     0.000405927

 GradGradGradGradGradGradGradGradGradGradGradGradGradGradGradGradGradGrad
 Berny optimization.
 Internal  Forces:  Max     0.001529831 RMS     0.000520579
 Search for a local minimum.
 Step number   5 out of a maximum of 100
 All quantities printed in internal units (Hartrees-Bohrs-Radians)
 Update second derivatives using D2CorX and points  1  2  3  4  5

 Trust test= 8.84D-01 RLast= 2.07D-02 DXMaxT set to 6.00D-01
     Eigenvalues ---    0.00867   0.00867   0.00945   0.01097   0.02381
     Eigenvalues ---    0.10846   0.14650   0.17026   0.20522   0.30224
     Eigenvalues ---    0.34461   0.35098   0.36708   0.37990   0.43131
     Eigenvalues ---    0.55436   0.61737   1.127781000.000001000.00000
     Eigenvalues --- 1000.000001000.00000
 RFO step:  Lambda=-1.78509359D-05.
 Quartic linear search produced a step of -0.09424.
 Iteration  1 RMS(Cart)=  0.00495512 RMS(Int)=  0.00002368
 Iteration  2 RMS(Cart)=  0.00002719 RMS(Int)=  0.00001098
 Iteration  3 RMS(Cart)=  0.00000000 RMS(Int)=  0.00001098
 Variable       Old X    -DE/DX   Delta X   Delta X   Delta X     New X
                                 (Linear)    (Quad)   (Total)
    R1        2.29952  -0.00066  -0.00003  -0.00044  -0.00047   2.29905
    R2        2.70925  -0.00042   0.00001  -0.00103  -0.00102   2.70823
    R3        2.58252  -0.00153  -0.00023  -0.00278  -0.00301   2.57951
    R4        2.03852  -0.00009  -0.00015   0.00024   0.00009   2.03862
    R5        2.03721  -0.00014   0.00000  -0.00031  -0.00032   2.03689
[...]
   4   1    -0.35   0.04   0.00     0.00   0.00   0.23     0.24  -0.01   0.00
   5   1     0.19  -0.18   0.00     0.00   0.00   0.62    -0.57   0.04   0.00
   6   1     0.56  -0.37   0.00     0.00   0.00   0.64     0.49  -0.45   0.00
   7   8     0.01   0.17   0.00     0.00   0.00  -0.07    -0.03  -0.33   0.00
   8   8    -0.24   0.02   0.00     0.00   0.00   0.00    -0.13   0.09   0.00
                    10                     11                     12
                     A                      A                      A
 Frequencies --  1008.2554              1029.8794              1248.4029
 Red. masses --     8.9229                 2.3595                 4.2151
 Frc consts  --     5.3444                 1.4745                 3.8705
 IR Inten    --     0.7756                 5.6949                91.0831
 Atom AN      X      Y      Z        X      Y      Z        X      Y      Z
   1   6    -0.04  -0.05   0.00    -0.05   0.08   0.00     0.47   0.12   0.00
   2   8    -0.01  -0.06   0.00    -0.04   0.19   0.00    -0.05  -0.06   0.00
   3   6    -0.21  -0.06   0.00     0.06  -0.20   0.00    -0.18  -0.02   0.00
   4   1    -0.01   0.10   0.00     0.15  -0.02   0.00    -0.03  -0.02   0.00
   5   1     0.18  -0.01   0.00     0.82  -0.13   0.00    -0.05   0.02   0.00
   6   1    -0.53   0.36   0.00    -0.30   0.30   0.00    -0.63   0.56   0.00
   7   8     0.57  -0.06   0.00    -0.03  -0.11   0.00    -0.10  -0.03   0.00
   8   8    -0.35   0.18   0.00     0.02   0.01   0.00    -0.02  -0.01   0.00
                    13                     14                     15
                     A                      A                      A
 Frequencies --  1451.2159              1502.3398              1710.3720
 Red. masses --     1.2431                 1.1916                 8.5742
 Frc consts  --     1.5424                 1.5846                14.7783
 IR Inten    --     7.3538               121.9995               168.9924
 Atom AN      X      Y      Z        X      Y      Z        X      Y      Z
   1   6     0.04   0.03   0.00     0.02  -0.04   0.00    -0.22   0.64   0.00
   2   8     0.00  -0.03   0.00     0.00   0.02   0.00     0.10  -0.39   0.00
   3   6    -0.12   0.05   0.00    -0.02   0.01   0.00     0.07  -0.07   0.00
   4   1    -0.17   0.04   0.00     0.95  -0.24   0.00     0.54  -0.18   0.00
   5   1     0.71   0.13   0.00     0.10   0.03   0.00     0.09  -0.07   0.00
   6   1     0.33  -0.57   0.00     0.06  -0.11   0.00    -0.09   0.18   0.00
   7   8     0.00  -0.01   0.00    -0.01   0.06   0.00    -0.01  -0.02   0.00
   8   8     0.01   0.01   0.00    -0.06  -0.04   0.00     0.00   0.00   0.00
                    16                     17                     18
                     A                      A                      A
 Frequencies --  3169.9573              3289.8637              3474.3897
 Red. masses --     1.0506                 1.1220                 1.0655
 Frc consts  --     6.2202                 7.1551                 7.5779
 IR Inten    --     0.6983                 0.5209                66.8257
 Atom AN      X      Y      Z        X      Y      Z        X      Y      Z
   1   6     0.00   0.00   0.00     0.00   0.00   0.00     0.00   0.01   0.00
   2   8     0.00   0.00   0.00     0.00   0.00   0.00     0.00   0.00   0.00
   3   6     0.06  -0.03   0.00    -0.04  -0.09   0.00     0.00   0.00   0.00
   4   1     0.00   0.00   0.00     0.00   0.00   0.00     0.20   0.98   0.00
   5   1    -0.07   0.73   0.00    -0.07   0.67   0.00     0.00   0.00   0.00
   6   1    -0.54  -0.40   0.00     0.59   0.43   0.00     0.00   0.00   0.00
   7   8     0.00   0.00   0.00     0.00   0.00   0.00     0.00   0.00   0.00
   8   8     0.00   0.00   0.00     0.00   0.00   0.00    -0.01  -0.06   0.00

 -------------------
 - Thermochemistry -
 -------------------
 Temperature   298.150 Kelvin.  Pressure   1.00000 Atm.
 Atom  1 has atomic number  6 and mass  12.00000
 Atom  2 has atomic number  8 and mass  15.99491
 Atom  3 has atomic number  6 and mass  12.00000
 Atom  4 has atomic number  1 and mass   1.00783
 Atom  5 has atomic number  1 and mass   1.00783
 Atom  6 has atomic number  1 and mass   1.00783
 Atom  7 has atomic number  8 and mass  15.99491
 Atom  8 has atomic number  8 and mass  15.99491
 Molecular mass:    75.00822 amu.
 Principal axes and moments of inertia in atomic units:
                           1         2         3
     EIGENVALUES --   159.78479 393.23454 553.01933
           X            0.99843  -0.05593  -0.00001
           Y            0.05593   0.99843  -0.00004
           Z            0.00002   0.00004   1.00000
 This molecule is an asymmetric top.
 Rotational symmetry number  1.
 Rotational temperatures (Kelvin)      0.54207     0.22026     0.15662
 Rotational constants (GHZ):          11.29482     4.58948     3.26343
 Zero-point vibrational energy     135422.0 (Joules/Mol)
                                   32.36663 (Kcal/Mol)
 Warning -- explicit consideration of   5 degrees of freedom as
           vibrations may cause significant error
 Vibrational temperatures:    296.72   464.24   484.58   612.89   719.04
          (Kelvin)            919.41   984.06  1105.33  1256.71  1450.65
                             1481.76  1796.17  2087.97  2161.53  2460.84
                             4560.86  4733.37  4998.87
 
 Zero-point correction=                           0.051580 (Hartree/Particle)
 Thermal correction to Energy=                    0.056743
 Thermal correction to Enthalpy=                  0.057687
 Thermal correction to Gibbs Free Energy=         0.023114
 Sum of electronic and zero-point Energies=           -303.617011
 Sum of electronic and thermal Energies=              -303.611847
 Sum of electronic and thermal Enthalpies=            -303.610903
 Sum of electronic and thermal Free Energies=         -303.645477
 
                     E (Thermal)             CV                S
                      KCal/Mol        Cal/Mol-Kelvin    Cal/Mol-Kelvin
 Total                   35.607             17.829             72.766
 Electronic               0.000              0.000              1.377
 Translational            0.889              2.981             38.861
 Rotational               0.889              2.981             25.055
 Vibrational             33.829             11.867              7.472
 Vibration  1             0.641              1.831              2.077
 Vibration  2             0.708              1.630              1.297
 Vibration  3             0.718              1.602              1.227
 Vibration  4             0.788              1.414              0.872
 Vibration  5             0.855              1.251              0.659
                       Q            Log10(Q)             Ln(Q)
 Total Bot       0.233591D-10        -10.631545        -24.480037
 Total V=0       0.123975D+14         13.093334         30.148515
 Vib (Bot)       0.685483D-23        -23.164003        -53.337089
 Vib (Bot)  1    0.964523D+00         -0.015687         -0.036122
 Vib (Bot)  2    0.581659D+00         -0.235332         -0.541871
 Vib (Bot)  3    0.552433D+00         -0.257720         -0.593422
 Vib (Bot)  4    0.410309D+00         -0.386889         -0.890846
 Vib (Bot)  5    0.328938D+00         -0.482886         -1.111886
 Vib (V=0)       0.363810D+01          0.560875          1.291463
 Vib (V=0)  1    0.158642D+01          0.200418          0.461479
 Vib (V=0)  2    0.126702D+01          0.102785          0.236671
 Vib (V=0)  3    0.124511D+01          0.095206          0.219221
 Vib (V=0)  4    0.114680D+01          0.059489          0.136977
 Vib (V=0)  5    0.109850D+01          0.040799          0.093944
 Electronic      0.200000D+01          0.301030          0.693147
 Translational   0.255340D+08          7.407118         17.055521
 Rotational      0.667283D+05          4.824310         11.108384
 ***** Axes restored to original set *****
 -------------------------------------------------------------------
 Center     Atomic                   Forces (Hartrees/Bohr)
 Number     Number              X              Y              Z
 -------------------------------------------------------------------
    1          6           0.000164225   -0.000026501    0.000015606
    2          8          -0.000231622   -0.000196107   -0.000005360
    3          6           0.000077184    0.000157321   -0.000004912
    4          1          -0.000144918   -0.000116591   -0.000000355
    5          1          -0.000018856   -0.000018450   -0.000000069
    6          1          -0.000030893    0.000020580   -0.000000533
    7          8           0.000165671    0.000063927   -0.000003433
    8          8           0.000019210    0.000115822   -0.000000943
 -------------------------------------------------------------------
 Cartesian Forces:  Max     0.000231622 RMS     0.000098485

 GradGradGradGradGradGradGradGradGradGradGradGradGradGradGradGradGradGrad
 Berny optimization.
 Internal  Forces:  Max     0.000303266 RMS     0.000095878
 Search for a local minimum.
 Step number   1 out of a maximum of   2
 All quantities printed in internal units (Hartrees-Bohrs-Radians)
 Second derivative matrix not updated -- analytic derivatives used.
     Eigenvalues ---    0.00644   0.01433   0.02205   0.04912   0.07480
     Eigenvalues ---    0.09638   0.10041   0.16729   0.20574   0.23744
     Eigenvalues ---    0.29501   0.36737   0.36949   0.37874   0.41191
     Eigenvalues ---    0.44882   0.54405   0.812311000.000001000.00000
     Eigenvalues --- 1000.000001000.00000
 Angle between quadratic step and forces=  26.67 degrees.
 Linear search not attempted -- first point.
 Iteration  1 RMS(Cart)=  0.00024412 RMS(Int)=  0.00000004
 Iteration  2 RMS(Cart)=  0.00000003 RMS(Int)=  0.00000000
 Variable       Old X    -DE/DX   Delta X   Delta X   Delta X     New X
                                 (Linear)    (Quad)   (Total)
    R1        2.29924   0.00030   0.00000   0.00035   0.00035   2.29959
    R2        2.70817   0.00016   0.00000   0.00039   0.00039   2.70856
    R3        2.57825   0.00002   0.00000   0.00005   0.00005   2.57830
    R4        2.03820  -0.00003   0.00000  -0.00007  -0.00007   2.03813
    R5        2.03680   0.00004   0.00000   0.00010   0.00010   2.03690
    R6        1.85990   0.00016   0.00000   0.00035   0.00035   1.86025
    R7        2.69228   0.00000   0.00000  -0.00007  -0.00007   2.69221
    A1        2.22403   0.00004   0.00000   0.00011   0.00011   2.22414
    A2        2.11800   0.00000   0.00000   0.00002   0.00002   2.11802
    A3        1.94116  -0.00004   0.00000  -0.00014  -0.00014   1.94102
    A4        2.11076  -0.00001   0.00000  -0.00016  -0.00016   2.11060
    A5        2.06323   0.00001   0.00000   0.00008   0.00008   2.06330
    A6        2.10920   0.00000   0.00000   0.00008   0.00008   2.10928
    A7        1.93477  -0.00016   0.00000  -0.00036  -0.00036   1.93442
    A8        1.76041   0.00016   0.00000   0.00054   0.00054   1.76096
    D1        3.14152   0.00000   0.00000   0.00007   0.00007  -3.14159
    D2       -0.00006   0.00000   0.00000   0.00006   0.00006   0.00000
    D3        0.00007   0.00000   0.00000  -0.00007  -0.00007   0.00000
    D4       -3.14151   0.00000   0.00000  -0.00008  -0.00008  -3.14159
    D5        0.00001   0.00000   0.00000  -0.00001  -0.00001   0.00000
    D6        3.14147   0.00001   0.00000   0.00013   0.00013  -3.14159
    D7       -0.00002   0.00000   0.00000   0.00002   0.00002   0.00000
         Item               Value     Threshold  Converged?
 Maximum Force            0.000303     0.000450     YES
 RMS     Force            0.000096     0.000300     YES
 Maximum Displacement     0.000642     0.001800     YES
 RMS     Displacement     0.000244     0.001200     YES
 Predicted change in Energy=-1.954730D-07
 Optimization completed.
    -- Stationary point found.
                           ----------------------------
                           !   Optimized Parameters   !
                           ! (Angstroms and Degrees)  !
 --------------------------                            --------------------------
 ! Name  Definition              Value          Derivative Info.                !
 --------------------------------------------------------------------------------
 ! R1    R(1,2)                  1.2167         -DE/DX =    0.0003              !
 ! R2    R(1,3)                  1.4331         -DE/DX =    0.0002              !
 ! R3    R(1,7)                  1.3643         -DE/DX =    0.0                 !
 ! R4    R(3,5)                  1.0786         -DE/DX =    0.0                 !
 ! R5    R(3,6)                  1.0778         -DE/DX =    0.0                 !
 ! R6    R(4,8)                  0.9842         -DE/DX =    0.0002              !
 ! R7    R(7,8)                  1.4247         -DE/DX =    0.0                 !
 ! A1    A(2,1,3)              127.4273         -DE/DX =    0.0                 !
 ! A2    A(2,1,7)              121.3523         -DE/DX =    0.0                 !
 ! A3    A(3,1,7)              111.2204         -DE/DX =    0.0                 !
 ! A4    A(1,3,5)              120.9375         -DE/DX =    0.0                 !
 ! A5    A(1,3,6)              118.2143         -DE/DX =    0.0                 !
 ! A6    A(5,3,6)              120.8482         -DE/DX =    0.0                 !
 ! A7    A(1,7,8)              110.8544         -DE/DX =   -0.0002              !
 ! A8    A(4,8,7)              100.8642         -DE/DX =    0.0002              !
 ! D1    D(2,1,3,5)           -180.0042         -DE/DX =    0.0                 !
 ! D2    D(2,1,3,6)             -0.0035         -DE/DX =    0.0                 !
 ! D3    D(7,1,3,5)              0.0042         -DE/DX =    0.0                 !
 ! D4    D(7,1,3,6)           -179.9952         -DE/DX =    0.0                 !
 ! D5    D(2,1,7,8)              0.0006         -DE/DX =    0.0                 !
 ! D6    D(3,1,7,8)           -180.0071         -DE/DX =    0.0                 !
 ! D7    D(1,7,8,4)             -0.0011         -DE/DX =    0.0                 !
 --------------------------------------------------------------------------------
 GradGradGradGradGradGradGradGradGradGradGradGradGradGradGradGradGradGrad

 1\1\GINC-COMP10\Freq\UB3LYP\6-311+G(3df,2p)\C2H3O3(2)\CHMDRGL\21-Oct-2
 005\0\\#N GEOM=ALLCHECK GUESS=READ SCRF=CHECK GENCHK UB3LYP/6-311+G(3D
 F,2P) FREQ\\acetyl peroxide\\0,2\C,-0.3290154939,0.3787383195,-0.00004
 66877\O,-1.2945120678,-0.3616593968,0.000048982\C,-0.3304098783,1.8118
 398312,0.0000398365\H,-0.0319793308,-1.7188002358,0.000076321\H,0.5941
 703161,2.3672361512,0.0000060388\H,-1.2806742282,2.3204818285,0.000150
 2932\O,0.9433035577,-0.1138590202,-0.000076369\O,0.9355879446,-1.53852
 9914,0.0000034437\\Version=x86-Linux-G03RevB.05\State=2-A\HF=-303.6685
 904\S2=0.755994\S2-1=0.\S2A=0.750025\RMSD=5.533e-09\RMSF=9.848e-05\Dip
 ole=-0.1175846,0.9624646,0.0000261\DipoleDeriv=1.3587512,-0.1303502,-0
 .000035,0.1517325,0.9757521,0.0000342,-0.0000564,0.0000295,0.3103962,-
 0.9031937,-0.1152428,0.0000054,-0.3724284,-0.6877744,-0.0000008,0.0000
 468,0.0000121,-0.3410669,0.172842,0.0260502,-0.0000261,-0.0323556,-0.1
 670905,0.0000044,-0.0000277,-0.0000056,-0.1719558,0.2521439,-0.0286018
 ,0.0000076,-0.0001029,0.3353464,-0.0000014,0.0000037,-0.0000002,0.2972
 554,0.0263724,-0.0260167,0.0000078,0.0020768,0.052457,-0.0000047,0.000
 0035,-0.0000055,0.1421869,0.0364711,0.0097765,0.0000085,-0.0090343,0.0
 493403,-0.0000019,0.0000128,-0.0000136,0.1403133,-0.7799792,0.3357204,
 0.0000327,0.0031457,-0.1115684,-0.0000114,0.0000394,-0.0000265,-0.1067
 615,-0.1634078,-0.0713355,-0.0000009,0.2569662,-0.4464624,-0.0000182,-
 0.000022,0.0000097,-0.2703676\Polar=42.0142432,-4.8994779,55.012642,-0
 .000679,0.0000648,26.5107864\PG=C01 [X(C2H3O3)]\NImag=0\\0.68259296,0.
 18879430,0.75041050,-0.00004005,-0.00001253,0.17194543,-0.41824140,-0.
 24181750,0.00003259,0.54051039,-0.25899285,-0.30674417,0.00002455,0.30
 974467,0.33624332,0.00003163,0.00002345,-0.07287221,-0.00004082,-0.000
 02678,0.03744561,-0.08736229,0.00564190,0.00000304,-0.00662293,-0.0492
 7026,0.00000151,0.67720984,0.01399302,-0.24211375,-0.00001187,-0.04027
 259,-0.05294144,0.00000169,-0.00035323,0.57972792,0.00000353,-0.000014
 71,-0.05690770,0.00000101,0.00000320,0.01549630,-0.00004678,0.00002929
 ,0.06759903,0.02386759,0.01535343,-0.00000160,-0.00685702,-0.01723294,
 0.00000137,-0.00321737,-0.00328691,0.00000001,0.41184899,-0.01157598,-
 0.01334697,0.00000191,-0.00170932,0.00961667,-0.00000113,-0.00045686,0
 .00065059,0.00000012,0.08658473,0.09971209,-0.00000008,0.00000070,0.00
 664461,0.00000028,-0.00000030,-0.00839018,0.00000024,-0.00000006,0.000
 40262,-0.00003162,-0.00001067,0.00977952,0.00333593,0.00193352,0.00000
 034,0.00184944,0.00192873,-0.00000010,-0.27668362,-0.13136944,0.000011
 06,0.00019300,0.00013961,-0.00000002,0.28196959,-0.02761731,-0.0046107
 2,0.00000105,0.00004674,-0.00794089,-0.00000005,-0.12590945,-0.1343253
 8,0.00000137,-0.00115302,0.00054555,0.,0.14047164,0.13447740,-0.000003
 19,-0.00000115,0.00411226,0.00000044,-0.00000082,0.00205214,0.00001198
 ,0.00000222,-0.01884206,-0.00000027,0.00000008,-0.00003070,-0.00001159
 ,-0.00000201,0.00901083,0.00315306,-0.00373707,-0.00000030,0.00049429,
 0.00025718,-0.00000019,-0.29053803,0.12641121,0.00003012,0.00007718,0.
 00017225,0.,-0.01067848,0.01211318,0.00000200,0.29665844,0.02894594,-0
 .00799543,-0.00000338,-0.00163372,0.00276688,0.00000048,0.11976407,-0.
 12030945,-0.00001707,0.00079116,0.00012183,-0.00000006,-0.01337923,0.0
 1118848,0.00000150,-0.13393142,0.12142513,0.00000355,0.00000040,0.0040
 3478,-0.00000109,-0.00000005,-0.00155241,0.00002916,-0.00001771,-0.018
 92854,0.00000019,-0.00000003,0.00012120,0.00000034,-0.00000047,0.00495
 000,-0.00003184,0.00001851,0.00924506,-0.18721143,-0.00931431,0.000006
 38,-0.10617680,-0.01593520,0.00000826,-0.00763245,0.03396908,0.0000006
 9,-0.01096275,-0.04371871,0.00000270,-0.00035171,0.00100148,0.00000048
 ,0.00024906,-0.00173774,-0.00000032,0.39176488,0.05161176,-0.10969787,
 -0.00000238,-0.01570611,0.00615343,0.00000273,0.04675709,-0.03990371,-
 0.00000245,-0.00407684,-0.03842387,0.00000253,0.00080021,-0.00012154,-
 0.00000017,0.00002175,-0.00613837,-0.00000057,-0.00819021,0.40732770,0
 .00000344,0.00000235,-0.05870225,0.00000727,0.00000234,0.02829864,0.00
 000057,-0.00000294,0.00773788,0.00000080,0.00000468,-0.00196793,-0.000
 00008,0.00000011,-0.00100678,0.00000008,0.00000003,0.00174671,-0.00001
 839,-0.00001470,0.03523024,-0.02013442,0.04314572,-0.00000040,-0.00495
 597,0.02950067,-0.00000166,-0.00515315,0.00090885,0.00000036,-0.414949
 63,-0.02943572,0.00002850,0.00036584,0.00104675,0.00000015,0.00058447,
 0.00118094,0.00000001,-0.07967881,-0.07121764,0.00000630,0.52392167,0.
 01484110,-0.06590159,0.00000266,-0.00865216,0.01284620,-0.00000039,0.0
 0382674,0.00921522,0.00000025,-0.07697962,-0.05887590,0.00000786,-0.00
 052505,0.00078710,0.00000035,-0.00130707,-0.00105907,-0.00000006,0.043
 92562,-0.21919576,0.00000812,0.02487043,0.32218379,0.00000116,0.000001
 50,0.00174510,0.00000031,-0.00000213,-0.00047788,0.00000027,-0.0000006
 2,0.00344247,0.00003112,0.00000504,-0.00655913,0.00000005,0.,-0.000245
 69,0.00000015,0.,0.00038321,0.00000020,0.00001500,-0.01133650,-0.00003
 326,-0.00001879,0.01304842\\-0.00016423,0.00002650,-0.00001561,0.00023
 162,0.00019611,0.00000536,-0.00007718,-0.00015732,0.00000491,0.0001449
 2,0.00011659,0.00000035,0.00001886,0.00001845,0.00000007,0.00003089,-0
 .00002058,0.00000053,-0.00016567,-0.00006393,0.00000343,-0.00001921,-0
 .00011582,0.00000094\\\@


 A SCIENTIST IS SOMEONE WHOSE CURIOSITY SURVIVES
 EDUCATION'S ASSAULTS ON IT.
                          - SIR HERMANN BONDI
 Job cpu time:  0 days  2 hours 17 minutes 52.2 seconds.
 File lengths (MBytes):  RWF=     79 Int=      0 D2E=      0 Chk=      7 Scr=      1
 Normal termination of Gaussian 03 at Fri Oct 21 19:28:17 2005.
