 Entering Gaussian System, Link 0=g03
 Input=O2.gjf
 Output=O2.log
 Initial command:
 /usr/local/g03/l1.exe /work/Gau-3374.inp -scrdir=/work/
 Entering Link 1 = /usr/local/g03/l1.exe PID=      3375.
  
 Copyright (c) 1988,1990,1992,1993,1995,1998,2003, Gaussian, Inc.
                  All Rights Reserved.
  
 This is the Gaussian(R) 03 program.  It is based on the
 the Gaussian(R) 98 system (copyright 1998, Gaussian, Inc.),
 the Gaussian(R) 94 system (copyright 1995, Gaussian, Inc.),
 the Gaussian 92(TM) system (copyright 1992, Gaussian, Inc.),
 the Gaussian 90(TM) system (copyright 1990, Gaussian, Inc.),
 the Gaussian 88(TM) system (copyright 1988, Gaussian, Inc.),
 the Gaussian 86(TM) system (copyright 1986, Carnegie Mellon
 University), and the Gaussian 82(TM) system (copyright 1983,
 Carnegie Mellon University). Gaussian is a federally registered
 trademark of Gaussian, Inc.
  
 This software contains proprietary and confidential information,
 including trade secrets, belonging to Gaussian, Inc.
  
 This software is provided under written license and may be
 used, copied, transmitted, or stored only in accord with that
 written license.
  
 The following legend is applicable only to US Government
 contracts under DFARS:
  
                    RESTRICTED RIGHTS LEGEND
  
 Use, duplication or disclosure by the US Government is subject
 to restrictions as set forth in subparagraph (c)(1)(ii) of the
 Rights in Technical Data and Computer Software clause at DFARS
 252.227-7013.
  
 Gaussian, Inc.
 Carnegie Office Park, Building 6, Pittsburgh, PA 15106 USA
  
 The following legend is applicable only to US Government
 contracts under FAR:
  
                    RESTRICTED RIGHTS LEGEND
  
 Use, reproduction and disclosure by the US Government is subject
 to restrictions as set forth in subparagraph (c) of the
 Commercial Computer Software - Restricted Rights clause at FAR
 52.227-19.
  
 Gaussian, Inc.
 Carnegie Office Park, Building 6, Pittsburgh, PA 15106 USA
  
  
 ---------------------------------------------------------------
 Warning -- This program may not be used in any manner that
 competes with the business of Gaussian, Inc. or will provide
 assistance to any competitor of Gaussian, Inc.  The licensee
 of this program is prohibited from giving any competitor of
 Gaussian, Inc. access to this program.  By using this program,
 the user acknowledges that Gaussian, Inc. is engaged in the
 business of creating and licensing software in the field of
 computational chemistry and represents and warrants to the
 licensee that it is not a competitor of Gaussian, Inc. and that
 it will not use this program in any manner prohibited above.
 ---------------------------------------------------------------
  

 Cite this work as:
 Gaussian 03, Revision B.05,
 M. J. Frisch, G. W. Trucks, H. B. Schlegel, G. E. Scuseria, 
 M. A. Robb, J. R. Cheeseman, J. A. Montgomery, Jr., T. Vreven, 
 K. N. Kudin, J. C. Burant, J. M. Millam, S. S. Iyengar, J. Tomasi, 
 V. Barone, B. Mennucci, M. Cossi, G. Scalmani, N. Rega, 
 G. A. Petersson, H. Nakatsuji, M. Hada, M. Ehara, K. Toyota, 
 R. Fukuda, J. Hasegawa, M. Ishida, T. Nakajima, Y. Honda, O. Kitao, 
 H. Nakai, M. Klene, X. Li, J. E. Knox, H. P. Hratchian, J. B. Cross, 
 C. Adamo, J. Jaramillo, R. Gomperts, R. E. Stratmann, O. Yazyev, 
 A. J. Austin, R. Cammi, C. Pomelli, J. W. Ochterski, P. Y. Ayala, 
 K. Morokuma, G. A. Voth, P. Salvador, J. J. Dannenberg, 
 V. G. Zakrzewski, S. Dapprich, A. D. Daniels, M. C. Strain, 
 O. Farkas, D. K. Malick, A. D. Rabuck, K. Raghavachari, 
 J. B. Foresman, J. V. Ortiz, Q. Cui, A. G. Baboul, S. Clifford, 
 J. Cioslowski, B. B. Stefanov, G. Liu, A. Liashenko, P. Piskorz, 
 I. Komaromi, R. L. Martin, D. J. Fox, T. Keith, M. A. Al-Laham, 
 C. Y. Peng, A. Nanayakkara, M. Challacombe, P. M. W. Gill, 
 B. Johnson, W. Chen, M. W. Wong, C. Gonzalez, and J. A. Pople, 
 Gaussian, Inc., Pittsburgh PA, 2003.
 
 **********************************************
 Gaussian 03:  x86-Linux-G03RevB.05 24-Oct-2003
                  16-Dec-2008 
 **********************************************
 %chk=O2
 %mem=900MB
 --------------------------------------------
 # UB3LYP/6-311+g(3df,2p) opt freq scf(tight)
 --------------------------------------------
 1/14=-1,18=20,26=3,38=1/1,3;
 2/9=110,17=6,18=5,40=1/2;
 3/5=4,6=6,7=216,11=2,16=1,25=1,30=1,74=-5/1,2,3;
 4/7=2/1;
 5/5=2,32=2,38=5/2;
 6/7=2,8=2,9=2,10=2,28=1/1;
 7//1,2,3,16;
 1/14=-1,18=20/3(1);
 99//99;
 2/9=110/2;
 3/5=4,6=6,7=216,11=2,16=1,25=1,30=1,74=-5/1,2,3;
 4/5=5,7=2,16=3/1;
 5/5=2,32=2,38=5/2;
 7//1,2,3,16;
 1/14=-1,18=20/3(-5);
 2/9=110/2;
 6/7=2,8=2,9=2,10=2,19=2,28=1/1;
 99/9=1/99;
 ---------------
 O2 calculations
 ---------------
 Symbolic Z-matrix:
 Charge =  0 Multiplicity = 3
 O                     0.        0.        0.60312 
 O                     0.        0.       -0.60312 
 

 GradGradGradGradGradGradGradGradGradGradGradGradGradGradGradGradGradGrad
 Berny optimization.
 Initialization pass.
                           ----------------------------
                           !    Initial Parameters    !
                           ! (Angstroms and Degrees)  !
 --------------------------                            --------------------------
 ! Name  Definition              Value          Derivative Info.                !
 --------------------------------------------------------------------------------
 ! R1    R(1,2)                  1.2062         estimate D2E/DX2                !
 --------------------------------------------------------------------------------
 Trust Radius=3.00D-01 FncErr=1.00D-07 GrdErr=1.00D-06
 Number of steps in this run=  20 maximum allowed number of steps= 100.
 GradGradGradGradGradGradGradGradGradGradGradGradGradGradGradGradGradGrad

                          Input orientation:                          
 ---------------------------------------------------------------------
 Center     Atomic     Atomic              Coordinates (Angstroms)
 Number     Number      Type              X           Y           Z
 ---------------------------------------------------------------------
    1          8             0        0.000000    0.000000    0.603119
    2          8             0        0.000000    0.000000   -0.603119
 ---------------------------------------------------------------------
 Stoichiometry    O2(3)
 Framework group  D*H[C*(O.O)]
 Deg. of freedom     1
 Full point group                 D*H     NOp   8
 Largest Abelian subgroup         D2H     NOp   8
 Largest concise Abelian subgroup C2      NOp   2
                         Standard orientation:                         
 ---------------------------------------------------------------------
 Center     Atomic     Atomic              Coordinates (Angstroms)
 Number     Number      Type              X           Y           Z
 ---------------------------------------------------------------------
    1          8             0        0.000000    0.000000    0.603119
    2          8             0        0.000000    0.000000   -0.603119
 ---------------------------------------------------------------------
 Rotational constants (GHZ):      0.0000000     43.4309425     43.4309425
 Standard basis: 6-311+G(3df,2p) (5D, 7F)
 There are    17 symmetry adapted basis functions of AG  symmetry.
 There are     4 symmetry adapted basis functions of B1G symmetry.
 There are     9 symmetry adapted basis functions of B2G symmetry.
 There are     9 symmetry adapted basis functions of B3G symmetry.
 There are     4 symmetry adapted basis functions of AU  symmetry.
 There are    17 symmetry adapted basis functions of B1U symmetry.
 There are     9 symmetry adapted basis functions of B2U symmetry.
 There are     9 symmetry adapted basis functions of B3U symmetry.
 Integral buffers will be    262144 words long.
 Raffenetti 2 integral format.
 Two-electron integral symmetry is turned on.
    78 basis functions,   116 primitive gaussians,    90 cartesian basis functions
     9 alpha electrons        7 beta electrons
       nuclear repulsion energy        28.0768317125 Hartrees.
 NAtoms=    2 NActive=    2 NUniq=    1 SFac= 5.66D+00 NAtFMM=   60 Big=F
 One-electron integrals computed using PRISM.
 NBasis=    78 RedAO= T  NBF=    17     4     9     9     4    17     9     9
 NBsUse=    78 1.00D-06 NBFU=    17     4     9     9     4    17     9     9
 Harris functional with IExCor=  402 diagonalized for initial guess.
 ExpMin= 8.45D-02 ExpMax= 8.59D+03 ExpMxC= 1.30D+03 IAcc=2 IRadAn=         4 AccDes= 0.00D+00
 HarFok:  IExCor= 402 AccDes= 0.00D+00 IRadAn=         4 IDoV=1
 ScaDFX=  1.000000  1.000000  1.000000  1.000000
 Initial guess orbital symmetries:
 Alpha Orbitals:
       Occupied  (SGU) (SGG) (SGG) (SGU) (SGG) (PIU) (PIU) (PIG)
                 (PIG)
       Virtual   (SGG) (SGU) (PIU) (PIU) (SGG) (PIG) (PIG) (SGU)
                 (SGU) (DLTG) (DLTG) (SGU) (PIU) (PIU) (SGG) (PIU)
                 (PIU) (DLTU) (DLTU) (PIG) (PIG) (SGG) (SGU) (PIG)
                 (PIG) (SGG) (SGU) (PIU) (PIU) (SGG) (DLTG) (DLTG)
                 (DLTU) (DLTU) (PIG) (PIG) (SGU) (DLTG) (DLTG)
                 (PIU) (PIU) (SGG) (PHIU) (PHIU) (PIG) (PIG) (PHIG)
                 (PHIG) (PIU) (PIU) (SGU) (DLTU) (DLTU) (SGG) (PIG)
                 (PIG) (SGU) (PIU) (PIU) (DLTG) (DLTG) (DLTU) (DLTU)
                 (SGG) (PIG) (PIG) (SGU) (SGG) (SGU)
 Beta  Orbitals:
       Occupied  (SGU) (SGG) (SGG) (SGU) (SGG) (PIU) (PIU)
       Virtual   (PIG) (PIG) (SGG) (SGU) (PIU) (PIU) (SGG) (PIG)
                 (PIG) (SGU) (SGU) (DLTG) (DLTG) (SGU) (PIU) (PIU)
                 (SGG) (PIU) (PIU) (DLTU) (DLTU) (PIG) (PIG) (SGG)
                 (SGU) (PIG) (PIG) (SGG) (SGU) (PIU) (PIU) (SGG)
                 (DLTG) (DLTG) (DLTU) (DLTU) (PIG) (PIG) (SGU)
                 (DLTG) (DLTG) (PIU) (PIU) (SGG) (PHIU) (PHIU)
                 (PIG) (PIG) (PHIG) (PHIG) (PIU) (PIU) (SGU) (DLTU)
                 (DLTU) (SGG) (PIG) (PIG) (SGU) (PIU) (PIU) (DLTG)
                 (DLTG) (DLTU) (DLTU) (SGG) (PIG) (PIG) (SGU) (SGG)
                 (SGU)
 The electronic state of the initial guess is 3-SGG.
 <S**2> of initial guess= 2.0000
 Requested convergence on RMS density matrix=1.00D-08 within 128 cycles.
 Requested convergence on MAX density matrix=1.00D-06.
 Requested convergence on             energy=1.00D-06.
 No special actions if energy rises.
 Keep R1 and R2 integrals in memory in canonical form, NReq=    18346939.
 Integral accuracy reduced to 1.0D-05 until final iterations.
 Initial convergence to 1.0D-05 achieved.  Increase integral accuracy.
 SCF Done:  E(UB+HF-LYP) =  -150.379475604     A.U. after   10 cycles
             Convg  =    0.4327D-08             -V/T =  2.0028
             S**2   =   2.0095
 Annihilation of the first spin contaminant:
 S**2 before annihilation     2.0095,   after     2.0000

 **********************************************************************

            Population analysis using the SCF density.

 **********************************************************************

 Orbital symmetries:
 Alpha Orbitals:
       Occupied  (SGG) (SGU) (SGG) (SGU) (PIU) (PIU) (SGG) (PIG)
                 (PIG)
       Virtual   (SGG) (SGU) (PIU) (PIU) (SGG) (PIG) (PIG) (SGU)
                 (SGU) (DLTG) (DLTG) (SGU) (PIU) (PIU) (SGG) (PIU)
                 (PIU) (DLTU) (DLTU) (PIG) (PIG) (SGG) (SGU) (PIG)
                 (PIG) (SGG) (SGU) (PIU) (PIU) (SGG) (DLTG) (DLTG)
                 (DLTU) (DLTU) (PIG) (PIG) (SGU) (DLTG) (DLTG)
                 (PIU) (PIU) (PHIU) (PHIU) (SGG) (PIG) (PIG) (PHIG)
                 (PHIG) (PIU) (PIU) (SGU) (DLTU) (DLTU) (SGG) (PIG)
                 (PIG) (SGU) (PIU) (PIU) (DLTG) (DLTG) (DLTU) (DLTU)
                 (SGG) (PIG) (PIG) (SGU) (SGG) (SGU)
 Beta  Orbitals:
       Occupied  (SGG) (SGU) (SGG) (SGU) (SGG) (PIU) (PIU)
       Virtual   (PIG) (PIG) (SGG) (SGU) (PIU) (PIU) (SGG) (PIG)
                 (PIG) (SGU) (SGU) (DLTG) (DLTG) (SGU) (SGG) (PIU)
                 (PIU) (DLTU) (DLTU) (PIU) (PIU) (PIG) (PIG) (SGG)
                 (SGU) (PIG) (PIG) (SGG) (SGU) (PIU) (PIU) (SGG)
                 (DLTG) (DLTG) (DLTU) (DLTU) (PIG) (PIG) (SGU)
                 (DLTG) (DLTG) (PIU) (PIU) (SGG) (PHIU) (PHIU)
                 (PIG) (PIG) (PHIG) (PHIG) (PIU) (PIU) (SGU) (DLTU)
                 (DLTU) (SGG) (PIG) (PIG) (SGU) (PIU) (PIU) (DLTG)
                 (DLTG) (DLTU) (DLTU) (SGG) (PIG) (PIG) (SGU) (SGG)
                 (SGU)
 The electronic state is 3-SGG.
 Alpha  occ. eigenvalues --  -19.29414 -19.29400  -1.31788  -0.84961  -0.57624
 Alpha  occ. eigenvalues --   -0.57624  -0.56336  -0.32110  -0.32110
 Alpha virt. eigenvalues --    0.07884   0.08155   0.12652   0.12652   0.19013
 Alpha virt. eigenvalues --    0.20305   0.20305   0.24327   0.32531   0.61366
 Alpha virt. eigenvalues --    0.61369   0.80786   0.81851   0.81851   0.82051
 Alpha virt. eigenvalues --    0.92279   0.92279   0.92383   0.92387   0.97944
 Alpha virt. eigenvalues --    0.97944   1.03306   1.18725   1.35314   1.35314
 Alpha virt. eigenvalues --    1.73803   2.22155   2.82167   2.82167   3.01557
 Alpha virt. eigenvalues --    3.11808   3.11809   3.30596   3.30598   3.65566
 Alpha virt. eigenvalues --    3.65566   3.97187   4.45917   4.45917   4.59837
 Alpha virt. eigenvalues --    4.59837   4.77096   4.77096   4.80754   4.86704
 Alpha virt. eigenvalues --    4.86704   5.02096   5.02096   5.08150   5.08150
 Alpha virt. eigenvalues --    5.19771   5.63416   5.63416   5.76526   6.78641
 Alpha virt. eigenvalues --    6.78641   8.11511  13.96593  13.96593  14.00846
 Alpha virt. eigenvalues --   14.00849  14.14149  14.14151  14.31700  14.75629
 Alpha virt. eigenvalues --   14.75629  15.55636  49.78479  50.10677
  Beta  occ. eigenvalues --  -19.26350 -19.26320  -1.26124  -0.76047  -0.52451
  Beta  occ. eigenvalues --   -0.47393  -0.47393
  Beta virt. eigenvalues --   -0.12730  -0.12730   0.08486   0.09162   0.13518
  Beta virt. eigenvalues --    0.13518   0.18910   0.21558   0.21558   0.28036
  Beta virt. eigenvalues --    0.33174   0.63011   0.63012   0.82301   0.82640
  Beta virt. eigenvalues --    0.83520   0.83520   0.95406   0.95409   0.96461
  Beta virt. eigenvalues --    0.96461   1.02439   1.02439   1.06218   1.20764
  Beta virt. eigenvalues --    1.36811   1.36811   1.75147   2.25020   2.85532
  Beta virt. eigenvalues --    2.85532   3.05708   3.19622   3.19623   3.39601
  Beta virt. eigenvalues --    3.39603   3.70839   3.70839   4.00436   4.50281
  Beta virt. eigenvalues --    4.50281   4.65898   4.65898   4.82776   4.84135
  Beta virt. eigenvalues --    4.84135   4.94509   4.94509   5.09556   5.09556
  Beta virt. eigenvalues --    5.13484   5.13484   5.23590   5.68475   5.68475
  Beta virt. eigenvalues --    5.79807   6.82557   6.82557   8.13549  14.03302
  Beta virt. eigenvalues --   14.03302  14.13041  14.13044  14.26306  14.26309
  Beta virt. eigenvalues --   14.36218  14.82176  14.82176  15.61326  49.81527
  Beta virt. eigenvalues --   50.13603
          Condensed to atoms (all electrons):
              1          2
     1  O    8.166695  -0.166695
     2  O   -0.166695   8.166695
 Mulliken atomic charges:
              1
     1  O    0.000000
     2  O    0.000000
 Sum of Mulliken charges=   0.00000
 Atomic charges with hydrogens summed into heavy atoms:
              1
     1  O    0.000000
     2  O    0.000000
 Sum of Mulliken charges=   0.00000
          Atomic-Atomic Spin Densities.
              1          2
     1  O    1.349555  -0.349555
     2  O   -0.349555   1.349555
 Mulliken atomic spin densities:
              1
     1  O    1.000000
     2  O    1.000000
 Sum of Mulliken spin densities=   2.00000
 Electronic spatial extent (au):  <R**2>=    43.6812
 Charge=     0.0000 electrons
 Dipole moment (field-independent basis, Debye):
    X=     0.0000    Y=     0.0000    Z=     0.0000  Tot=     0.0000
 Quadrupole moment (field-independent basis, Debye-Ang):
   XX=   -10.1373   YY=   -10.1373   ZZ=   -10.5233
   XY=     0.0000   XZ=     0.0000   YZ=     0.0000
 Traceless Quadrupole moment (field-independent basis, Debye-Ang):
   XX=     0.1287   YY=     0.1287   ZZ=    -0.2573
   XY=     0.0000   XZ=     0.0000   YZ=     0.0000
 Octapole moment (field-independent basis, Debye-Ang**2):
  XXX=     0.0000  YYY=     0.0000  ZZZ=     0.0000  XYY=     0.0000
  XXY=     0.0000  XXZ=     0.0000  XZZ=     0.0000  YZZ=     0.0000
  YYZ=     0.0000  XYZ=     0.0000
 Hexadecapole moment (field-independent basis, Debye-Ang**3):
 XXXX=    -7.5564 YYYY=    -7.5564 ZZZZ=   -29.0039 XXXY=     0.0000
 XXXZ=     0.0000 YYYX=     0.0000 YYYZ=     0.0000 ZZZX=     0.0000
 ZZZY=     0.0000 XXYY=    -2.5188 XXZZ=    -6.3656 YYZZ=    -6.3656
 XXYZ=     0.0000 YYXZ=     0.0000 ZZXY=     0.0000
 N-N= 2.807683171248D+01 E-N=-4.118411530061D+02  KE= 1.499579293951D+02
 Symmetry AG   KE= 6.960523719725D+01
 Symmetry B1G  KE= 4.310728298202D-34
 Symmetry B2G  KE= 3.078767766180D+00
 Symmetry B3G  KE= 3.078767766180D+00
 Symmetry AU   KE= 1.914418037536D-33
 Symmetry B1U  KE= 6.503420962345D+01
 Symmetry B2U  KE= 4.580473521005D+00
 Symmetry B3U  KE= 4.580473521005D+00
                          Isotropic Fermi Contact Couplings
        Atom                 a.u.       MegaHertz       Gauss      10(-4) cm-1
     1  O(17)              0.09560     -28.97674     -10.33962      -9.66560
     2  O(17)              0.09560     -28.97674     -10.33962      -9.66560
 --------------------------------------------------------
       Center         ----  Spin Dipole Couplings  ----
                      3XX-RR        3YY-RR        3ZZ-RR
 --------------------------------------------------------
     1   Atom        1.282690      1.282690     -2.565380
     2   Atom        1.282690      1.282690     -2.565380
 --------------------------------------------------------
                        XY            XZ            YZ
 --------------------------------------------------------
     1   Atom        0.000000      0.000000      0.000000
     2   Atom        0.000000      0.000000      0.000000
 --------------------------------------------------------


 ---------------------------------------------------------------------------------
              Anisotropic Spin Dipole Couplings in Principal Axis System
 ---------------------------------------------------------------------------------

       Atom             a.u.   MegaHertz   Gauss  10(-4) cm-1        Axes

              Baa    -2.5654   185.629    66.237    61.919  0.0000  0.0000  1.0000
     1 O(17)  Bbb     1.2827   -92.815   -33.119   -30.960  1.0000  0.0000  0.0000
              Bcc     1.2827   -92.815   -33.119   -30.960  0.0000  1.0000  0.0000
 
              Baa    -2.5654   185.629    66.237    61.919  0.0000  0.0000  1.0000
     2 O(17)  Bbb     1.2827   -92.815   -33.119   -30.960  1.0000  0.0000  0.0000
              Bcc     1.2827   -92.815   -33.119   -30.960  0.0000  1.0000  0.0000
 

 ---------------------------------------------------------------------------------

 ***** Axes restored to original set *****
 -------------------------------------------------------------------
 Center     Atomic                   Forces (Hartrees/Bohr)
 Number     Number              X              Y              Z
 -------------------------------------------------------------------
    1          8           0.000000000    0.000000000   -0.004565088
    2          8           0.000000000    0.000000000    0.004565088
 -------------------------------------------------------------------
 Cartesian Forces:  Max     0.004565088 RMS     0.002635655

 GradGradGradGradGradGradGradGradGradGradGradGradGradGradGradGradGradGrad
 Berny optimization.
 Internal  Forces:  Max     0.004565088 RMS     0.004565088
 Search for a local minimum.
 Step number   1 out of a maximum of  20
 All quantities printed in internal units (Hartrees-Bohrs-Radians)
 Second derivative matrix not updated -- first step.
 The second derivative matrix:
                          R1
           R1           1.01750
     Eigenvalues ---    1.01750
 RFO step:  Lambda=-2.04811691D-05.
 Linear search not attempted -- first point.
 Iteration  1 RMS(Cart)=  0.00317242 RMS(Int)=  0.00000000
 Iteration  2 RMS(Cart)=  0.00000000 RMS(Int)=  0.00000000
 Variable       Old X    -DE/DX   Delta X   Delta X   Delta X     New X
                                 (Linear)    (Quad)   (Total)
    R1        2.27946  -0.00457   0.00000  -0.00449  -0.00449   2.27497
         Item               Value     Threshold  Converged?
 Maximum Force            0.004565     0.000450     NO 
 RMS     Force            0.004565     0.000300     NO 
 Maximum Displacement     0.002243     0.001800     NO 
 RMS     Displacement     0.003172     0.001200     NO 
 Predicted change in Energy=-1.024079D-05
 GradGradGradGradGradGradGradGradGradGradGradGradGradGradGradGradGradGrad

                          Input orientation:                          
 ---------------------------------------------------------------------
 Center     Atomic     Atomic              Coordinates (Angstroms)
 Number     Number      Type              X           Y           Z
 ---------------------------------------------------------------------
    1          8             0        0.000000    0.000000    0.601932
    2          8             0        0.000000    0.000000   -0.601932
 ---------------------------------------------------------------------
 Stoichiometry    O2(3)
 Framework group  D*H[C*(O.O)]
 Deg. of freedom     1
 Full point group                 D*H     NOp   8
 Largest Abelian subgroup         D2H     NOp   8
 Largest concise Abelian subgroup C2      NOp   2
                         Standard orientation:                         
 ---------------------------------------------------------------------
 Center     Atomic     Atomic              Coordinates (Angstroms)
 Number     Number      Type              X           Y           Z
 ---------------------------------------------------------------------
    1          8             0        0.000000    0.000000    0.601932
    2          8             0        0.000000    0.000000   -0.601932
 ---------------------------------------------------------------------
 Rotational constants (GHZ):      0.0000000     43.6024118     43.6024118
 Standard basis: 6-311+G(3df,2p) (5D, 7F)
 There are    17 symmetry adapted basis functions of AG  symmetry.
 There are     4 symmetry adapted basis functions of B1G symmetry.
 There are     9 symmetry adapted basis functions of B2G symmetry.
 There are     9 symmetry adapted basis functions of B3G symmetry.
 There are     4 symmetry adapted basis functions of AU  symmetry.
 There are    17 symmetry adapted basis functions of B1U symmetry.
 There are     9 symmetry adapted basis functions of B2U symmetry.
 There are     9 symmetry adapted basis functions of B3U symmetry.
 Integral buffers will be    262144 words long.
 Raffenetti 2 integral format.
 Two-electron integral symmetry is turned on.
    78 basis functions,   116 primitive gaussians,    90 cartesian basis functions
     9 alpha electrons        7 beta electrons
       nuclear repulsion energy        28.1322020838 Hartrees.
 NAtoms=    2 NActive=    2 NUniq=    1 SFac= 5.66D+00 NAtFMM=   60 Big=F
 One-electron integrals computed using PRISM.
 NBasis=    78 RedAO= T  NBF=    17     4     9     9     4    17     9     9
 NBsUse=    78 1.00D-06 NBFU=    17     4     9     9     4    17     9     9
 Initial guess read from the read-write file:
 Initial guess orbital symmetries:
 Alpha Orbitals:
       Occupied  (SGG) (SGU) (SGG) (SGU) (PIU) (PIU) (SGG) (PIG)
                 (PIG)
       Virtual   (SGG) (SGU) (PIU) (PIU) (SGG) (PIG) (PIG) (SGU)
                 (SGU) (DLTG) (DLTG) (SGU) (PIU) (PIU) (SGG) (PIU)
                 (PIU) (DLTU) (DLTU) (PIG) (PIG) (SGG) (SGU) (PIG)
                 (PIG) (SGG) (SGU) (PIU) (PIU) (SGG) (DLTG) (DLTG)
                 (DLTU) (DLTU) (PIG) (PIG) (SGU) (DLTG) (DLTG)
                 (PIU) (PIU) (PHIU) (PHIU) (SGG) (PIG) (PIG) (PHIG)
                 (PHIG) (PIU) (PIU) (SGU) (DLTU) (DLTU) (SGG) (PIG)
                 (PIG) (SGU) (PIU) (PIU) (DLTG) (DLTG) (DLTU) (DLTU)
                 (SGG) (PIG) (PIG) (SGU) (SGG) (SGU)
 Beta  Orbitals:
       Occupied  (SGG) (SGU) (SGG) (SGU) (SGG) (PIU) (PIU)
       Virtual   (PIG) (PIG) (SGG) (SGU) (PIU) (PIU) (SGG) (PIG)
                 (PIG) (SGU) (SGU) (DLTG) (DLTG) (SGU) (SGG) (PIU)
                 (PIU) (DLTU) (DLTU) (PIU) (PIU) (PIG) (PIG) (SGG)
                 (SGU) (PIG) (PIG) (SGG) (SGU) (PIU) (PIU) (SGG)
                 (DLTG) (DLTG) (DLTU) (DLTU) (PIG) (PIG) (SGU)
                 (DLTG) (DLTG) (PIU) (PIU) (SGG) (PHIU) (PHIU)
                 (PIG) (PIG) (PHIG) (PHIG) (PIU) (PIU) (SGU) (DLTU)
                 (DLTU) (SGG) (PIG) (PIG) (SGU) (PIU) (PIU) (DLTG)
                 (DLTG) (DLTU) (DLTU) (SGG) (PIG) (PIG) (SGU) (SGG)
                 (SGU)
 <S**2> of initial guess= 2.0095
 Requested convergence on RMS density matrix=1.00D-08 within 128 cycles.
 Requested convergence on MAX density matrix=1.00D-06.
 Requested convergence on             energy=1.00D-06.
 No special actions if energy rises.
 Keep R1 and R2 integrals in memory in canonical form, NReq=    18346939.
 SCF Done:  E(UB+HF-LYP) =  -150.379487966     A.U. after    7 cycles
             Convg  =    0.8176D-09             -V/T =  2.0028
             S**2   =   2.0095
 Annihilation of the first spin contaminant:
 S**2 before annihilation     2.0095,   after     2.0000
 ***** Axes restored to original set *****
 -------------------------------------------------------------------
 Center     Atomic                   Forces (Hartrees/Bohr)
 Number     Number              X              Y              Z
 -------------------------------------------------------------------
    1          8           0.000000000    0.000000000   -0.000935562
    2          8           0.000000000    0.000000000    0.000935562
 -------------------------------------------------------------------
 Cartesian Forces:  Max     0.000935562 RMS     0.000540147

 GradGradGradGradGradGradGradGradGradGradGradGradGradGradGradGradGradGrad
 Berny optimization.
 Internal  Forces:  Max     0.000935562 RMS     0.000935562
 Search for a local minimum.
 Step number   2 out of a maximum of  20
 All quantities printed in internal units (Hartrees-Bohrs-Radians)
 Update second derivatives using D2CorX and points  1  2
 Trust test= 1.21D+00 RLast= 4.49D-03 DXMaxT set to 3.00D-01
 The second derivative matrix:
                          R1
           R1           0.80899
     Eigenvalues ---    0.80899
 RFO step:  Lambda= 0.00000000D+00.
 Quartic linear search produced a step of  0.25508.
 Iteration  1 RMS(Cart)=  0.00080922 RMS(Int)=  0.00000000
 Iteration  2 RMS(Cart)=  0.00000000 RMS(Int)=  0.00000000
 Variable       Old X    -DE/DX   Delta X   Delta X   Delta X     New X
                                 (Linear)    (Quad)   (Total)
    R1        2.27497  -0.00094  -0.00114   0.00000  -0.00114   2.27383
         Item               Value     Threshold  Converged?
 Maximum Force            0.000936     0.000450     NO 
 RMS     Force            0.000936     0.000300     NO 
 Maximum Displacement     0.000572     0.001800     YES
 RMS     Displacement     0.000809     0.001200     YES
 Predicted change in Energy=-5.409082D-07
 GradGradGradGradGradGradGradGradGradGradGradGradGradGradGradGradGradGrad

                          Input orientation:                          
 ---------------------------------------------------------------------
 Center     Atomic     Atomic              Coordinates (Angstroms)
 Number     Number      Type              X           Y           Z
 ---------------------------------------------------------------------
    1          8             0        0.000000    0.000000    0.601629
    2          8             0        0.000000    0.000000   -0.601629
 ---------------------------------------------------------------------
 Stoichiometry    O2(3)
 Framework group  D*H[C*(O.O)]
 Deg. of freedom     1
 Full point group                 D*H     NOp   8
 Largest Abelian subgroup         D2H     NOp   8
 Largest concise Abelian subgroup C2      NOp   2
                         Standard orientation:                         
 ---------------------------------------------------------------------
 Center     Atomic     Atomic              Coordinates (Angstroms)
 Number     Number      Type              X           Y           Z
 ---------------------------------------------------------------------
    1          8             0        0.000000    0.000000    0.601629
    2          8             0        0.000000    0.000000   -0.601629
 ---------------------------------------------------------------------
 Rotational constants (GHZ):      0.0000000     43.6463127     43.6463127
 Standard basis: 6-311+G(3df,2p) (5D, 7F)
 There are    17 symmetry adapted basis functions of AG  symmetry.
 There are     4 symmetry adapted basis functions of B1G symmetry.
 There are     9 symmetry adapted basis functions of B2G symmetry.
 There are     9 symmetry adapted basis functions of B3G symmetry.
 There are     4 symmetry adapted basis functions of AU  symmetry.
 There are    17 symmetry adapted basis functions of B1U symmetry.
 There are     9 symmetry adapted basis functions of B2U symmetry.
 There are     9 symmetry adapted basis functions of B3U symmetry.
 Integral buffers will be    262144 words long.
 Raffenetti 2 integral format.
 Two-electron integral symmetry is turned on.
    78 basis functions,   116 primitive gaussians,    90 cartesian basis functions
     9 alpha electrons        7 beta electrons
       nuclear repulsion energy        28.1463609141 Hartrees.
 NAtoms=    2 NActive=    2 NUniq=    1 SFac= 5.66D+00 NAtFMM=   60 Big=F
 One-electron integrals computed using PRISM.
 NBasis=    78 RedAO= T  NBF=    17     4     9     9     4    17     9     9
 NBsUse=    78 1.00D-06 NBFU=    17     4     9     9     4    17     9     9
 Initial guess read from the read-write file:
 Initial guess orbital symmetries:
 Alpha Orbitals:
       Occupied  (SGG) (SGU) (SGG) (SGU) (PIU) (PIU) (SGG) (PIG)
                 (PIG)
       Virtual   (SGG) (SGU) (PIU) (PIU) (SGG) (PIG) (PIG) (SGU)
                 (SGU) (DLTG) (DLTG) (SGU) (PIU) (PIU) (SGG) (PIU)
                 (PIU) (DLTU) (DLTU) (PIG) (PIG) (SGG) (SGU) (PIG)
                 (PIG) (SGG) (SGU) (PIU) (PIU) (SGG) (DLTG) (DLTG)
                 (DLTU) (DLTU) (PIG) (PIG) (SGU) (DLTG) (DLTG)
                 (PIU) (PIU) (PHIU) (PHIU) (SGG) (PIG) (PIG) (PHIG)
                 (PHIG) (PIU) (PIU) (SGU) (DLTU) (DLTU) (SGG) (PIG)
                 (PIG) (SGU) (PIU) (PIU) (DLTG) (DLTG) (DLTU) (DLTU)
                 (SGG) (PIG) (PIG) (SGU) (SGG) (SGU)
 Beta  Orbitals:
       Occupied  (SGG) (SGU) (SGG) (SGU) (SGG) (PIU) (PIU)
       Virtual   (PIG) (PIG) (SGG) (SGU) (PIU) (PIU) (SGG) (PIG)
                 (PIG) (SGU) (SGU) (DLTG) (DLTG) (SGU) (SGG) (PIU)
                 (PIU) (DLTU) (DLTU) (PIU) (PIU) (PIG) (PIG) (SGG)
                 (SGU) (PIG) (PIG) (SGG) (SGU) (PIU) (PIU) (SGG)
                 (DLTG) (DLTG) (DLTU) (DLTU) (PIG) (PIG) (SGU)
                 (DLTG) (DLTG) (PIU) (PIU) (SGG) (PHIU) (PHIU)
                 (PIG) (PIG) (PHIG) (PHIG) (PIU) (PIU) (SGU) (DLTU)
                 (DLTU) (SGG) (PIG) (PIG) (SGU) (PIU) (PIU) (DLTG)
                 (DLTG) (DLTU) (DLTU) (SGG) (PIG) (PIG) (SGU) (SGG)
                 (SGU)
 <S**2> of initial guess= 2.0094
 Requested convergence on RMS density matrix=1.00D-08 within 128 cycles.
 Requested convergence on MAX density matrix=1.00D-06.
 Requested convergence on             energy=1.00D-06.
 No special actions if energy rises.
 Keep R1 and R2 integrals in memory in canonical form, NReq=    18346939.
 SCF Done:  E(UB+HF-LYP) =  -150.379488502     A.U. after    6 cycles
             Convg  =    0.3414D-08             -V/T =  2.0027
             S**2   =   2.0094
 Annihilation of the first spin contaminant:
 S**2 before annihilation     2.0094,   after     2.0000
 ***** Axes restored to original set *****
 -------------------------------------------------------------------
 Center     Atomic                   Forces (Hartrees/Bohr)
 Number     Number              X              Y              Z
 -------------------------------------------------------------------
    1          8           0.000000000    0.000000000    0.000000026
    2          8           0.000000000    0.000000000   -0.000000026
 -------------------------------------------------------------------
 Cartesian Forces:  Max     0.000000026 RMS     0.000000015

 GradGradGradGradGradGradGradGradGradGradGradGradGradGradGradGradGradGrad
 Berny optimization.
 Internal  Forces:  Max     0.000000026 RMS     0.000000026
 Search for a local minimum.
 Step number   3 out of a maximum of  20
 All quantities printed in internal units (Hartrees-Bohrs-Radians)
 Update second derivatives using D2CorX and points  3
 Trust test= 9.90D-01 RLast= 1.14D-03 DXMaxT set to 3.00D-01
 The second derivative matrix:
                          R1
           R1           0.80899
     Eigenvalues ---    0.80899
 RFO step:  Lambda= 0.00000000D+00.
 Quartic linear search produced a step of -0.00003.
 Iteration  1 RMS(Cart)=  0.00000002 RMS(Int)=  0.00000000
 Variable       Old X    -DE/DX   Delta X   Delta X   Delta X     New X
                                 (Linear)    (Quad)   (Total)
    R1        2.27383   0.00000   0.00000   0.00000   0.00000   2.27383
         Item               Value     Threshold  Converged?
 Maximum Force            0.000000     0.000450     YES
 RMS     Force            0.000000     0.000300     YES
 Maximum Displacement     0.000000     0.001800     YES
 RMS     Displacement     0.000000     0.001200     YES
 Predicted change in Energy=-4.063917D-16
 Optimization completed.
    -- Stationary point found.
                           ----------------------------
                           !   Optimized Parameters   !
                           ! (Angstroms and Degrees)  !
 --------------------------                            --------------------------
 ! Name  Definition              Value          Derivative Info.                !
 --------------------------------------------------------------------------------
 ! R1    R(1,2)                  1.2033         -DE/DX =    0.0                 !
 --------------------------------------------------------------------------------
 GradGradGradGradGradGradGradGradGradGradGradGradGradGradGradGradGradGrad

                          Input orientation:                          
 ---------------------------------------------------------------------
 Center     Atomic     Atomic              Coordinates (Angstroms)
 Number     Number      Type              X           Y           Z
 ---------------------------------------------------------------------
    1          8             0        0.000000    0.000000    0.601629
    2          8             0        0.000000    0.000000   -0.601629
 ---------------------------------------------------------------------
 Stoichiometry    O2(3)
 Framework group  D*H[C*(O.O)]
 Deg. of freedom     1
 Full point group                 D*H     NOp   8
 Largest Abelian subgroup         D2H     NOp   8
 Largest concise Abelian subgroup C2      NOp   2
                         Standard orientation:                         
 ---------------------------------------------------------------------
 Center     Atomic     Atomic              Coordinates (Angstroms)
 Number     Number      Type              X           Y           Z
 ---------------------------------------------------------------------
    1          8             0        0.000000    0.000000    0.601629
    2          8             0        0.000000    0.000000   -0.601629
 ---------------------------------------------------------------------
 Rotational constants (GHZ):      0.0000000     43.6463127     43.6463127

 **********************************************************************

            Population analysis using the SCF density.

 **********************************************************************

 Orbital symmetries:
 Alpha Orbitals:
       Occupied  (SGG) (SGU) (SGG) (SGU) (PIU) (PIU) (SGG) (PIG)
                 (PIG)
       Virtual   (SGG) (SGU) (PIU) (PIU) (SGG) (PIG) (PIG) (SGU)
                 (SGU) (DLTG) (DLTG) (SGU) (PIU) (PIU) (SGG) (PIU)
                 (PIU) (DLTU) (DLTU) (PIG) (PIG) (SGG) (SGU) (PIG)
                 (PIG) (SGG) (SGU) (PIU) (PIU) (SGG) (DLTG) (DLTG)
                 (DLTU) (DLTU) (PIG) (PIG) (SGU) (DLTG) (DLTG)
                 (PIU) (PIU) (PHIU) (PHIU) (SGG) (PIG) (PIG) (PHIG)
                 (PHIG) (PIU) (PIU) (SGU) (DLTU) (DLTU) (SGG) (PIG)
                 (PIG) (SGU) (PIU) (PIU) (DLTG) (DLTG) (DLTU) (DLTU)
                 (SGG) (PIG) (PIG) (SGU) (SGG) (SGU)
 Beta  Orbitals:
       Occupied  (SGG) (SGU) (SGG) (SGU) (SGG) (PIU) (PIU)
       Virtual   (PIG) (PIG) (SGG) (SGU) (PIU) (PIU) (SGG) (PIG)
                 (PIG) (SGU) (SGU) (DLTG) (DLTG) (SGU) (SGG) (PIU)
                 (PIU) (DLTU) (DLTU) (PIU) (PIU) (PIG) (PIG) (SGG)
                 (SGU) (PIG) (PIG) (SGG) (SGU) (PIU) (PIU) (SGG)
                 (DLTG) (DLTG) (DLTU) (DLTU) (PIG) (PIG) (SGU)
                 (DLTG) (DLTG) (PIU) (PIU) (SGG) (PHIU) (PHIU)
                 (PIG) (PIG) (PHIG) (PHIG) (PIU) (PIU) (SGU) (DLTU)
                 (DLTU) (SGG) (PIG) (PIG) (SGU) (PIU) (PIU) (DLTG)
                 (DLTG) (DLTU) (DLTU) (SGG) (PIG) (PIG) (SGU) (SGG)
                 (SGU)
 The electronic state is 3-SGG.
 Alpha  occ. eigenvalues --  -19.29379 -19.29365  -1.32021  -0.84869  -0.57723
 Alpha  occ. eigenvalues --   -0.57723  -0.56379  -0.32012  -0.32012
 Alpha virt. eigenvalues --    0.07888   0.08225   0.12645   0.12645   0.19012
 Alpha virt. eigenvalues --    0.20314   0.20314   0.24683   0.32546   0.61348
 Alpha virt. eigenvalues --    0.61351   0.80690   0.81916   0.81916   0.81984
 Alpha virt. eigenvalues --    0.92311   0.92311   0.92440   0.92445   0.97980
 Alpha virt. eigenvalues --    0.97980   1.03234   1.18936   1.35365   1.35365
 Alpha virt. eigenvalues --    1.74021   2.21979   2.81990   2.81990   3.01927
 Alpha virt. eigenvalues --    3.11634   3.11636   3.30686   3.30688   3.65952
 Alpha virt. eigenvalues --    3.65952   3.97670   4.45808   4.45809   4.60086
 Alpha virt. eigenvalues --    4.60086   4.76918   4.76918   4.80952   4.86718
 Alpha virt. eigenvalues --    4.86718   5.02252   5.02252   5.08584   5.08584
 Alpha virt. eigenvalues --    5.20429   5.64064   5.64064   5.77175   6.79840
 Alpha virt. eigenvalues --    6.79840   8.12567  13.96670  13.96670  14.00809
 Alpha virt. eigenvalues --   14.00811  14.14266  14.14269  14.32867  14.76459
 Alpha virt. eigenvalues --   14.76459  15.55042  49.78696  50.11702
  Beta  occ. eigenvalues --  -19.26315 -19.26285  -1.26372  -0.75958  -0.52484
  Beta  occ. eigenvalues --   -0.47500  -0.47500
  Beta virt. eigenvalues --   -0.12629  -0.12629   0.08490   0.09207   0.13508
  Beta virt. eigenvalues --    0.13508   0.18907   0.21570   0.21570   0.28402
  Beta virt. eigenvalues --    0.33206   0.62993   0.62995   0.82205   0.82572
  Beta virt. eigenvalues --    0.83596   0.83596   0.95467   0.95469   0.96479
  Beta virt. eigenvalues --    0.96479   1.02484   1.02484   1.06145   1.20984
  Beta virt. eigenvalues --    1.36857   1.36857   1.75360   2.24842   2.85355
  Beta virt. eigenvalues --    2.85355   3.06087   3.19430   3.19431   3.39694
  Beta virt. eigenvalues --    3.39695   3.71228   3.71228   4.00915   4.50175
  Beta virt. eigenvalues --    4.50175   4.66180   4.66180   4.82989   4.83951
  Beta virt. eigenvalues --    4.83951   4.94522   4.94522   5.09713   5.09713
  Beta virt. eigenvalues --    5.13885   5.13885   5.24250   5.69124   5.69124
  Beta virt. eigenvalues --    5.80442   6.83763   6.83763   8.14601  14.03377
  Beta virt. eigenvalues --   14.03377  14.13004  14.13006  14.26422  14.26425
  Beta virt. eigenvalues --   14.37381  14.83001  14.83001  15.60760  49.81744
  Beta virt. eigenvalues --   50.14624
          Condensed to atoms (all electrons):
              1          2
     1  O    8.174303  -0.174303
     2  O   -0.174303   8.174303
 Mulliken atomic charges:
              1
     1  O    0.000000
     2  O    0.000000
 Sum of Mulliken charges=   0.00000
 Atomic charges with hydrogens summed into heavy atoms:
              1
     1  O    0.000000
     2  O    0.000000
 Sum of Mulliken charges=   0.00000
          Atomic-Atomic Spin Densities.
              1          2
     1  O    1.352278  -0.352278
     2  O   -0.352278   1.352278
 Mulliken atomic spin densities:
              1
     1  O    1.000000
     2  O    1.000000
 Sum of Mulliken spin densities=   2.00000
 Electronic spatial extent (au):  <R**2>=    43.5751
 Charge=     0.0000 electrons
 Dipole moment (field-independent basis, Debye):
    X=     0.0000    Y=     0.0000    Z=     0.0000  Tot=     0.0000
 Quadrupole moment (field-independent basis, Debye-Ang):
   XX=   -10.1317   YY=   -10.1317   ZZ=   -10.5297
   XY=     0.0000   XZ=     0.0000   YZ=     0.0000
 Traceless Quadrupole moment (field-independent basis, Debye-Ang):
   XX=     0.1327   YY=     0.1327   ZZ=    -0.2653
   XY=     0.0000   XZ=     0.0000   YZ=     0.0000
 Octapole moment (field-independent basis, Debye-Ang**2):
  XXX=     0.0000  YYY=     0.0000  ZZZ=     0.0000  XYY=     0.0000
  XXY=     0.0000  XXZ=     0.0000  XZZ=     0.0000  YZZ=     0.0000
  YYZ=     0.0000  XYZ=     0.0000
 Hexadecapole moment (field-independent basis, Debye-Ang**3):
 XXXX=    -7.5481 YYYY=    -7.5481 ZZZZ=   -28.9118 XXXY=     0.0000
 XXXZ=     0.0000 YYYX=     0.0000 YYYZ=     0.0000 ZZZX=     0.0000
 ZZZY=     0.0000 XXYY=    -2.5160 XXZZ=    -6.3480 YYZZ=    -6.3480
 XXYZ=     0.0000 YYXZ=     0.0000 ZZXY=     0.0000
 N-N= 2.814636091414D+01 E-N=-4.119844810787D+02  KE= 1.499680964459D+02
 Symmetry AG   KE= 6.961413176108D+01
 Symmetry B1G  KE= 4.349001281760D-34
 Symmetry B2G  KE= 3.079754187928D+00
 Symmetry B3G  KE= 3.079754187928D+00
 Symmetry AU   KE= 1.940888126136D-33
 Symmetry B1U  KE= 6.503085442028D+01
 Symmetry B2U  KE= 4.581800944336D+00
 Symmetry B3U  KE= 4.581800944336D+00
                          Isotropic Fermi Contact Couplings
        Atom                 a.u.       MegaHertz       Gauss      10(-4) cm-1
     1  O(17)              0.09546     -28.93500     -10.32473      -9.65168
     2  O(17)              0.09546     -28.93500     -10.32473      -9.65168
 --------------------------------------------------------
       Center         ----  Spin Dipole Couplings  ----
                      3XX-RR        3YY-RR        3ZZ-RR
 --------------------------------------------------------
     1   Atom        1.282476      1.282476     -2.564953
     2   Atom        1.282476      1.282476     -2.564953
 --------------------------------------------------------
                        XY            XZ            YZ
 --------------------------------------------------------
     1   Atom        0.000000      0.000000      0.000000
     2   Atom        0.000000      0.000000      0.000000
 --------------------------------------------------------


 ---------------------------------------------------------------------------------
              Anisotropic Spin Dipole Couplings in Principal Axis System
 ---------------------------------------------------------------------------------

       Atom             a.u.   MegaHertz   Gauss  10(-4) cm-1        Axes

              Baa    -2.5650   185.598    66.226    61.909  0.0000  0.0000  1.0000
     1 O(17)  Bbb     1.2825   -92.799   -33.113   -30.954  1.0000  0.0000  0.0000
              Bcc     1.2825   -92.799   -33.113   -30.954  0.0000  1.0000  0.0000
 
              Baa    -2.5650   185.598    66.226    61.909  0.0000  0.0000  1.0000
     2 O(17)  Bbb     1.2825   -92.799   -33.113   -30.954  1.0000  0.0000  0.0000
              Bcc     1.2825   -92.799   -33.113   -30.954  0.0000  1.0000  0.0000
 

 ---------------------------------------------------------------------------------

 1\1\GINC-COMP12\FOpt\UB3LYP\6-311+G(3df,2p)\O2(3)\CHMDRGL\16-Dec-2008\
 0\\# UB3LYP/6-311+G(3DF,2P) OPT FREQ SCF(TIGHT)\\O2 calculations\\0,3\
 O,0.,0.,0.6016291313\O,0.,0.,-0.6016291313\\Version=x86-Linux-G03RevB.
 05\State=3-SGG\HF=-150.3794885\S2=2.009441\S2-1=0.\S2A=2.000046\RMSD=3
 .414e-09\RMSF=1.481e-08\Dipole=0.,0.,0.\PG=D*H [C*(O1.O1)]\\@


 YOU ARE IN A MAZE OF TWISTY LITTLE PASSAGES.
 Job cpu time:  0 days  0 hours  1 minutes 42.3 seconds.
 File lengths (MBytes):  RWF=     15 Int=      0 D2E=      0 Chk=      7 Scr=      1
 Normal termination of Gaussian 03 at Tue Dec 16 16:43:29 2008.
 Link1:  Proceeding to internal job step number  2.
 ----------------------------------------------------------------------
 #N Geom=AllCheck Guess=Read SCRF=Check GenChk UB3LYP/6-311+G(3df,2p) F
 req
 ----------------------------------------------------------------------
 1/10=4,29=7,30=1,38=1,40=1,46=1/1,3;
 2/40=1/2;
 3/5=4,6=6,7=216,11=2,16=1,25=1,30=1,70=2,71=2,74=-5/1,2,3;
 4/5=1,7=2/1;
 5/5=2,32=2,38=6/2;
 8/6=4,10=90,11=11/1;
 11/6=1,8=1,9=11,15=111,16=1/1,2,10;
 10/6=1/2;
 6/7=2,8=2,9=2,10=2,18=1,28=1/1;
 7/8=1,10=1,25=1/1,2,3,16;
 1/10=4,30=1,46=1/3;
 99//99;
 ---------------
 O2 calculations
 ---------------
 Redundant internal coordinates taken from checkpoint file:
 O2.chk
 Charge =  0 Multiplicity = 3
 O,0,0.,0.,0.6016291313
 O,0,0.,0.,-0.6016291313
 Recover connectivity data from disk.

 GradGradGradGradGradGradGradGradGradGradGradGradGradGradGradGradGradGrad
 Berny optimization.
 Initialization pass.
                           ----------------------------
                           !    Initial Parameters    !
                           ! (Angstroms and Degrees)  !
 --------------------------                            --------------------------
 ! Name  Definition              Value          Derivative Info.                !
 --------------------------------------------------------------------------------
 ! R1    R(1,2)                  1.2033         calculate D2E/DX2 analytically  !
 --------------------------------------------------------------------------------
 Trust Radius=3.00D-01 FncErr=1.00D-07 GrdErr=1.00D-07
 Number of steps in this run=   2 maximum allowed number of steps=   2.
 GradGradGradGradGradGradGradGradGradGradGradGradGradGradGradGradGradGrad

                          Input orientation:                          
 ---------------------------------------------------------------------
 Center     Atomic     Atomic              Coordinates (Angstroms)
 Number     Number      Type              X           Y           Z
 ---------------------------------------------------------------------
    1          8             0        0.000000    0.000000    0.601629
    2          8             0        0.000000    0.000000   -0.601629
 ---------------------------------------------------------------------
 Stoichiometry    O2(3)
 Framework group  D*H[C*(O.O)]
 Deg. of freedom     1
 Full point group                 D*H     NOp   8
 Largest Abelian subgroup         D2H     NOp   8
 Largest concise Abelian subgroup C2      NOp   2
                         Standard orientation:                         
 ---------------------------------------------------------------------
 Center     Atomic     Atomic              Coordinates (Angstroms)
 Number     Number      Type              X           Y           Z
 ---------------------------------------------------------------------
    1          8             0        0.000000    0.000000    0.601629
    2          8             0        0.000000    0.000000   -0.601629
 ---------------------------------------------------------------------
 Rotational constants (GHZ):      0.0000000     43.6463127     43.6463127
 Standard basis: 6-311+G(3df,2p) (5D, 7F)
 There are    17 symmetry adapted basis functions of AG  symmetry.
 There are     4 symmetry adapted basis functions of B1G symmetry.
 There are     9 symmetry adapted basis functions of B2G symmetry.
 There are     9 symmetry adapted basis functions of B3G symmetry.
 There are     4 symmetry adapted basis functions of AU  symmetry.
 There are    17 symmetry adapted basis functions of B1U symmetry.
 There are     9 symmetry adapted basis functions of B2U symmetry.
 There are     9 symmetry adapted basis functions of B3U symmetry.
 Integral buffers will be    262144 words long.
 Raffenetti 2 integral format.
 Two-electron integral symmetry is turned on.
    78 basis functions,   116 primitive gaussians,    90 cartesian basis functions
     9 alpha electrons        7 beta electrons
       nuclear repulsion energy        28.1463609141 Hartrees.
 NAtoms=    2 NActive=    2 NUniq=    1 SFac= 5.66D+00 NAtFMM=   60 Big=F
 One-electron integrals computed using PRISM.
 NBasis=    78 RedAO= T  NBF=    17     4     9     9     4    17     9     9
 NBsUse=    78 1.00D-06 NBFU=    17     4     9     9     4    17     9     9
 Initial guess read from the checkpoint file:
 O2.chk
 Initial guess orbital symmetries:
 Alpha Orbitals:
       Occupied  (SGG) (SGU) (SGG) (SGU) (PIU) (PIU) (SGG) (PIG)
                 (PIG)
       Virtual   (SGG) (SGU) (PIU) (PIU) (SGG) (PIG) (PIG) (SGU)
                 (SGU) (DLTG) (DLTG) (SGU) (PIU) (PIU) (SGG) (PIU)
                 (PIU) (DLTU) (DLTU) (PIG) (PIG) (SGG) (SGU) (PIG)
                 (PIG) (SGG) (SGU) (PIU) (PIU) (SGG) (DLTG) (DLTG)
                 (DLTU) (DLTU) (PIG) (PIG) (SGU) (DLTG) (DLTG)
                 (PIU) (PIU) (PHIU) (PHIU) (SGG) (PIG) (PIG) (PHIG)
                 (PHIG) (PIU) (PIU) (SGU) (DLTU) (DLTU) (SGG) (PIG)
                 (PIG) (SGU) (PIU) (PIU) (DLTG) (DLTG) (DLTU) (DLTU)
                 (SGG) (PIG) (PIG) (SGU) (SGG) (SGU)
 Beta  Orbitals:
       Occupied  (SGG) (SGU) (SGG) (SGU) (SGG) (PIU) (PIU)
       Virtual   (PIG) (PIG) (SGG) (SGU) (PIU) (PIU) (SGG) (PIG)
                 (PIG) (SGU) (SGU) (DLTG) (DLTG) (SGU) (SGG) (PIU)
                 (PIU) (DLTU) (DLTU) (PIU) (PIU) (PIG) (PIG) (SGG)
                 (SGU) (PIG) (PIG) (SGG) (SGU) (PIU) (PIU) (SGG)
                 (DLTG) (DLTG) (DLTU) (DLTU) (PIG) (PIG) (SGU)
                 (DLTG) (DLTG) (PIU) (PIU) (SGG) (PHIU) (PHIU)
                 (PIG) (PIG) (PHIG) (PHIG) (PIU) (PIU) (SGU) (DLTU)
                 (DLTU) (SGG) (PIG) (PIG) (SGU) (PIU) (PIU) (DLTG)
                 (DLTG) (DLTU) (DLTU) (SGG) (PIG) (PIG) (SGU) (SGG)
                 (SGU)
 <S**2> of initial guess= 2.0094
 Requested convergence on RMS density matrix=1.00D-08 within 128 cycles.
 Requested convergence on MAX density matrix=1.00D-06.
 Requested convergence on             energy=1.00D-06.
 No special actions if energy rises.
 Keep R1 and R2 integrals in memory in canonical form, NReq=    18346939.
 SCF Done:  E(UB+HF-LYP) =  -150.379488502     A.U. after    1 cycles
             Convg  =    0.1932D-09             -V/T =  2.0027
             S**2   =   2.0094
 Annihilation of the first spin contaminant:
 S**2 before annihilation     2.0094,   after     2.0000
 Range of M.O.s used for correlation:     1    78
 NBasis=    78 NAE=     9 NBE=     7 NFC=     0 NFV=     0
 NROrb=     78 NOA=     9 NOB=     7 NVA=    69 NVB=    71

 **** Warning!!: The largest alpha MO coefficient is  0.21887895D+02


 **** Warning!!: The largest beta MO coefficient is  0.21740807D+02

 Symmetrizing basis deriv contribution to polar:
 IMax=3 JMax=2 DiffMx= 0.00D+00
 G2DrvN: will do    3 centers at a time, making    1 passes doing MaxLOS=3.
 FoFDir/FoFCou used for L=0 through L=3.
          Differentiating once with respect to electric field.
                with respect to dipole field.
          Differentiating once with respect to nuclear coordinates.
          Store integrals in memory, NReq=    17913945.
          There are   6 degrees of freedom in the 1st order CPHF.
     6 vectors were produced by pass  0.
 AX will form   6 AO Fock derivatives at one time.
     6 vectors were produced by pass  1.
     6 vectors were produced by pass  2.
     6 vectors were produced by pass  3.
     6 vectors were produced by pass  4.
     6 vectors were produced by pass  5.
     6 vectors were produced by pass  6.
     4 vectors were produced by pass  7.
     1 vectors were produced by pass  8.
     1 vectors were produced by pass  9.
 Inv2:  IOpt= 1 Iter= 1 AM= 5.05D-16 Conv= 1.00D-12.
 Inverted reduced A of dimension   48 with in-core refinement.
 Isotropic polarizability for W=    0.000000        9.98 Bohr**3.
 End of Minotr Frequency-dependent properties file   721 does not exist.

 **********************************************************************

            Population analysis using the SCF density.

 **********************************************************************

 Orbital symmetries:
 Alpha Orbitals:
       Occupied  (SGG) (SGU) (SGG) (SGU) (PIU) (PIU) (SGG) (PIG)
                 (PIG)
       Virtual   (SGG) (SGU) (PIU) (PIU) (SGG) (PIG) (PIG) (SGU)
                 (SGU) (DLTG) (DLTG) (SGU) (PIU) (PIU) (SGG) (PIU)
                 (PIU) (DLTU) (DLTU) (PIG) (PIG) (SGG) (SGU) (PIG)
                 (PIG) (SGG) (SGU) (PIU) (PIU) (SGG) (DLTG) (DLTG)
                 (DLTU) (DLTU) (PIG) (PIG) (SGU) (DLTG) (DLTG)
                 (PIU) (PIU) (PHIU) (PHIU) (SGG) (PIG) (PIG) (PHIG)
                 (PHIG) (PIU) (PIU) (SGU) (DLTU) (DLTU) (SGG) (PIG)
                 (PIG) (SGU) (PIU) (PIU) (DLTG) (DLTG) (DLTU) (DLTU)
                 (SGG) (PIG) (PIG) (SGU) (SGG) (SGU)
 Beta  Orbitals:
       Occupied  (SGG) (SGU) (SGG) (SGU) (SGG) (PIU) (PIU)
       Virtual   (PIG) (PIG) (SGG) (SGU) (PIU) (PIU) (SGG) (PIG)
                 (PIG) (SGU) (SGU) (DLTG) (DLTG) (SGU) (SGG) (PIU)
                 (PIU) (DLTU) (DLTU) (PIU) (PIU) (PIG) (PIG) (SGG)
                 (SGU) (PIG) (PIG) (SGG) (SGU) (PIU) (PIU) (SGG)
                 (DLTG) (DLTG) (DLTU) (DLTU) (PIG) (PIG) (SGU)
                 (DLTG) (DLTG) (PIU) (PIU) (SGG) (PHIU) (PHIU)
                 (PIG) (PIG) (PHIG) (PHIG) (PIU) (PIU) (SGU) (DLTU)
                 (DLTU) (SGG) (PIG) (PIG) (SGU) (PIU) (PIU) (DLTG)
                 (DLTG) (DLTU) (DLTU) (SGG) (PIG) (PIG) (SGU) (SGG)
                 (SGU)
 The electronic state is 3-SGG.
 Alpha  occ. eigenvalues --  -19.29379 -19.29365  -1.32021  -0.84869  -0.57723
 Alpha  occ. eigenvalues --   -0.57723  -0.56379  -0.32012  -0.32012
 Alpha virt. eigenvalues --    0.07888   0.08225   0.12645   0.12645   0.19012
 Alpha virt. eigenvalues --    0.20314   0.20314   0.24683   0.32546   0.61348
 Alpha virt. eigenvalues --    0.61351   0.80690   0.81916   0.81916   0.81984
 Alpha virt. eigenvalues --    0.92311   0.92311   0.92440   0.92445   0.97980
 Alpha virt. eigenvalues --    0.97980   1.03234   1.18936   1.35365   1.35365
 Alpha virt. eigenvalues --    1.74021   2.21979   2.81990   2.81990   3.01927
 Alpha virt. eigenvalues --    3.11634   3.11636   3.30686   3.30688   3.65952
 Alpha virt. eigenvalues --    3.65952   3.97670   4.45808   4.45809   4.60086
 Alpha virt. eigenvalues --    4.60086   4.76918   4.76918   4.80952   4.86718
 Alpha virt. eigenvalues --    4.86718   5.02252   5.02252   5.08584   5.08584
 Alpha virt. eigenvalues --    5.20429   5.64064   5.64064   5.77175   6.79840
 Alpha virt. eigenvalues --    6.79840   8.12567  13.96670  13.96670  14.00809
 Alpha virt. eigenvalues --   14.00811  14.14266  14.14269  14.32867  14.76459
 Alpha virt. eigenvalues --   14.76459  15.55042  49.78696  50.11702
  Beta  occ. eigenvalues --  -19.26315 -19.26285  -1.26372  -0.75958  -0.52484
  Beta  occ. eigenvalues --   -0.47500  -0.47500
  Beta virt. eigenvalues --   -0.12629  -0.12629   0.08490   0.09207   0.13508
  Beta virt. eigenvalues --    0.13508   0.18907   0.21570   0.21570   0.28402
  Beta virt. eigenvalues --    0.33206   0.62993   0.62995   0.82205   0.82572
  Beta virt. eigenvalues --    0.83596   0.83596   0.95467   0.95469   0.96479
  Beta virt. eigenvalues --    0.96479   1.02484   1.02484   1.06145   1.20984
  Beta virt. eigenvalues --    1.36857   1.36857   1.75360   2.24842   2.85355
  Beta virt. eigenvalues --    2.85355   3.06087   3.19430   3.19431   3.39694
  Beta virt. eigenvalues --    3.39695   3.71228   3.71228   4.00915   4.50175
  Beta virt. eigenvalues --    4.50175   4.66180   4.66180   4.82989   4.83951
  Beta virt. eigenvalues --    4.83951   4.94522   4.94522   5.09713   5.09713
  Beta virt. eigenvalues --    5.13885   5.13885   5.24250   5.69124   5.69124
  Beta virt. eigenvalues --    5.80442   6.83763   6.83763   8.14601  14.03377
  Beta virt. eigenvalues --   14.03377  14.13004  14.13006  14.26422  14.26425
  Beta virt. eigenvalues --   14.37381  14.83001  14.83001  15.60760  49.81744
  Beta virt. eigenvalues --   50.14624
          Condensed to atoms (all electrons):
              1          2
     1  O    8.174303  -0.174303
     2  O   -0.174303   8.174303
 Mulliken atomic charges:
              1
     1  O    0.000000
     2  O    0.000000
 Sum of Mulliken charges=   0.00000
 Atomic charges with hydrogens summed into heavy atoms:
              1
     1  O    0.000000
     2  O    0.000000
 Sum of Mulliken charges=   0.00000
          Atomic-Atomic Spin Densities.
              1          2
     1  O    1.352278  -0.352278
     2  O   -0.352278   1.352278
 Mulliken atomic spin densities:
              1
     1  O    1.000000
     2  O    1.000000
 Sum of Mulliken spin densities=   2.00000
 APT atomic charges:
              1
     1  O    0.000000
     2  O    0.000000
 Sum of APT charges=   0.00000
 APT Atomic charges with hydrogens summed into heavy atoms:
              1
     1  O    0.000000
     2  O    0.000000
 Sum of APT charges=   0.00000
 Electronic spatial extent (au):  <R**2>=    43.5751
 Charge=     0.0000 electrons
 Dipole moment (field-independent basis, Debye):
    X=     0.0000    Y=     0.0000    Z=     0.0000  Tot=     0.0000
 Quadrupole moment (field-independent basis, Debye-Ang):
   XX=   -10.1317   YY=   -10.1317   ZZ=   -10.5297
   XY=     0.0000   XZ=     0.0000   YZ=     0.0000
 Traceless Quadrupole moment (field-independent basis, Debye-Ang):
   XX=     0.1327   YY=     0.1327   ZZ=    -0.2653
   XY=     0.0000   XZ=     0.0000   YZ=     0.0000
 Octapole moment (field-independent basis, Debye-Ang**2):
  XXX=     0.0000  YYY=     0.0000  ZZZ=     0.0000  XYY=     0.0000
  XXY=     0.0000  XXZ=     0.0000  XZZ=     0.0000  YZZ=     0.0000
  YYZ=     0.0000  XYZ=     0.0000
 Hexadecapole moment (field-independent basis, Debye-Ang**3):
 XXXX=    -7.5481 YYYY=    -7.5481 ZZZZ=   -28.9118 XXXY=     0.0000
 XXXZ=     0.0000 YYYX=     0.0000 YYYZ=     0.0000 ZZZX=     0.0000
 ZZZY=     0.0000 XXYY=    -2.5160 XXZZ=    -6.3480 YYZZ=    -6.3480
 XXYZ=     0.0000 YYXZ=     0.0000 ZZXY=     0.0000
 N-N= 2.814636091414D+01 E-N=-4.119844809179D+02  KE= 1.499680963795D+02
 Symmetry AG   KE= 6.961413175461D+01
 Symmetry B1G  KE= 4.349001257523D-34
 Symmetry B2G  KE= 3.079754173450D+00
 Symmetry B3G  KE= 3.079754173450D+00
 Symmetry AU   KE= 1.940888104859D-33
 Symmetry B1U  KE= 6.503085441210D+01
 Symmetry B2U  KE= 4.581800932961D+00
 Symmetry B3U  KE= 4.581800932961D+00
  Exact polarizability:   7.518   0.000   7.518   0.000   0.000  14.913
 Approx polarizability:   9.197   0.000   9.197   0.000   0.000  25.497
                          Isotropic Fermi Contact Couplings
        Atom                 a.u.       MegaHertz       Gauss      10(-4) cm-1
     1  O(17)              0.09546     -28.93498     -10.32472      -9.65167
     2  O(17)              0.09546     -28.93498     -10.32472      -9.65167
 --------------------------------------------------------
       Center         ----  Spin Dipole Couplings  ----
                      3XX-RR        3YY-RR        3ZZ-RR
 --------------------------------------------------------
     1   Atom        1.282476      1.282476     -2.564952
     2   Atom        1.282476      1.282476     -2.564952
 --------------------------------------------------------
                        XY            XZ            YZ
 --------------------------------------------------------
     1   Atom        0.000000      0.000000      0.000000
     2   Atom        0.000000      0.000000      0.000000
 --------------------------------------------------------


 ---------------------------------------------------------------------------------
              Anisotropic Spin Dipole Couplings in Principal Axis System
 ---------------------------------------------------------------------------------

       Atom             a.u.   MegaHertz   Gauss  10(-4) cm-1        Axes

              Baa    -2.5650   185.598    66.226    61.909  0.0000  0.0000  1.0000
     1 O(17)  Bbb     1.2825   -92.799   -33.113   -30.954  0.0000  1.0000  0.0000
              Bcc     1.2825   -92.799   -33.113   -30.954  1.0000  0.0000  0.0000
 
              Baa    -2.5650   185.598    66.226    61.909  0.0000  0.0000  1.0000
     2 O(17)  Bbb     1.2825   -92.799   -33.113   -30.954  0.0000  1.0000  0.0000
              Bcc     1.2825   -92.799   -33.113   -30.954  1.0000  0.0000  0.0000
 

 ---------------------------------------------------------------------------------

 Full mass-weighted force constant matrix:
 Low frequencies ---   -0.0005    0.0002    0.0003   17.5266   17.5266 1645.2806
 Diagonal vibrational polarizability:
        0.0000000       0.0000000       0.0000000
 Harmonic frequencies (cm**-1), IR intensities (KM/Mole), Raman scattering
 activities (A**4/AMU), depolarization ratios for plane and unpolarized
 incident light, reduced masses (AMU), force constants (mDyne/A),
 and normal coordinates:
                     1
                    SGG
 Frequencies --  1645.2806
 Red. masses --    15.9949
 Frc consts  --    25.5101
 IR Inten    --     0.0000
 Atom AN      X      Y      Z
   1   8     0.00   0.00   0.71
   2   8     0.00   0.00  -0.71

 -------------------
 - Thermochemistry -
 -------------------
 Temperature   298.150 Kelvin.  Pressure   1.00000 Atm.
 Atom  1 has atomic number  8 and mass  15.99491
 Atom  2 has atomic number  8 and mass  15.99491
 Molecular mass:    31.98983 amu.
 Principal axes and moments of inertia in atomic units:
                           1         2         3
     EIGENVALUES --     0.00000  41.34923  41.34923
           X            0.00000   1.00000   0.00000
           Y            0.00000   0.00000   1.00000
           Z            1.00000   0.00000   0.00000
 This molecule is a prolate symmetric top.
 Rotational symmetry number  2.
 Rotational temperature (Kelvin)      2.09469
 Rotational constant (GHZ):          43.646313
 Zero-point vibrational energy       9841.0 (Joules/Mol)
                                    2.35205 (Kcal/Mol)
 Vibrational temperatures:   2367.19
          (Kelvin)
 
 Zero-point correction=                           0.003748 (Hartree/Particle)
 Thermal correction to Energy=                    0.006111
 Thermal correction to Enthalpy=                  0.007056
 Thermal correction to Gibbs Free Energy=        -0.016213
 Sum of electronic and zero-point Energies=           -150.375740
 Sum of electronic and thermal Energies=              -150.373377
 Sum of electronic and thermal Enthalpies=            -150.372433
 Sum of electronic and thermal Free Energies=         -150.395702
 
                     E (Thermal)             CV                S
                      KCal/Mol        Cal/Mol-Kelvin    Cal/Mol-Kelvin
 Total                    3.835              5.013             48.973
 Electronic               0.000              0.000              2.183
 Translational            0.889              2.981             36.321
 Rotational               0.592              1.987             10.463
 Vibrational              2.354              0.045              0.006
                       Q            Log10(Q)             Ln(Q)
 Total Bot       0.286731D+08          7.457474         17.171468
 Total V=0       0.151892D+10          9.181534         21.141264
 Vib (Bot)       0.188840D-01         -1.723905         -3.969439
 Vib (V=0)       0.100036D+01          0.000155          0.000356
 Electronic      0.300000D+01          0.477121          1.098612
 Translational   0.711169D+07          6.851973         15.777251
 Rotational      0.711680D+02          1.852285          4.265044
 ***** Axes restored to original set *****
 -------------------------------------------------------------------
 Center     Atomic                   Forces (Hartrees/Bohr)
 Number     Number              X              Y              Z
 -------------------------------------------------------------------
    1          8           0.000000000    0.000000000    0.000000017
    2          8           0.000000000    0.000000000   -0.000000017
 -------------------------------------------------------------------
 Cartesian Forces:  Max     0.000000017 RMS     0.000000010

 GradGradGradGradGradGradGradGradGradGradGradGradGradGradGradGradGradGrad
 Berny optimization.
 Internal  Forces:  Max     0.000000017 RMS     0.000000017
 Search for a local minimum.
 Step number   1 out of a maximum of   2
 All quantities printed in internal units (Hartrees-Bohrs-Radians)
 Second derivative matrix not updated -- analytic derivatives used.
 The second derivative matrix:
                          R1
           R1           0.81926
     Eigenvalues ---    0.81926
 Angle between quadratic step and forces=  90.00 degrees.
 Linear search not attempted -- first point.
 Iteration  1 RMS(Cart)=  0.00000001 RMS(Int)=  0.00000000
 Variable       Old X    -DE/DX   Delta X   Delta X   Delta X     New X
                                 (Linear)    (Quad)   (Total)
    R1        2.27383   0.00000   0.00000   0.00000   0.00000   2.27383
         Item               Value     Threshold  Converged?
 Maximum Force            0.000000     0.000450     YES
 RMS     Force            0.000000     0.000300     YES
 Maximum Displacement     0.000000     0.001800     YES
 RMS     Displacement     0.000000     0.001200     YES
 Predicted change in Energy=-1.678601D-16
 Optimization completed.
    -- Stationary point found.
                           ----------------------------
                           !   Optimized Parameters   !
                           ! (Angstroms and Degrees)  !
 --------------------------                            --------------------------
 ! Name  Definition              Value          Derivative Info.                !
 --------------------------------------------------------------------------------
 ! R1    R(1,2)                  1.2033         -DE/DX =    0.0                 !
 --------------------------------------------------------------------------------
 GradGradGradGradGradGradGradGradGradGradGradGradGradGradGradGradGradGrad

 1\1\GINC-COMP12\Freq\UB3LYP\6-311+G(3df,2p)\O2(3)\CHMDRGL\16-Dec-2008\
 0\\#N GEOM=ALLCHECK GUESS=READ SCRF=CHECK GENCHK UB3LYP/6-311+G(3DF,2P
 ) FREQ\\O2 calculations\\0,3\O,0.,0.,0.6016291313\O,0.,0.,-0.601629131
 3\\Version=x86-Linux-G03RevB.05\State=3-SGG\HF=-150.3794885\S2=2.00944
 1\S2-1=0.\S2A=2.000046\RMSD=1.932e-10\RMSF=9.575e-09\Dipole=0.,0.,0.\D
 ipoleDeriv=0.,0.,0.,0.,0.,0.,0.,0.,0.,0.,0.,0.,0.,0.,0.,0.,0.,0.\Polar
 =7.5177011,0.,7.5177011,0.,0.,14.9134366\PG=D*H [C*(O1.O1)]\NImag=0\\0
 .00009297,0.,0.00009297,0.,0.,0.81926293,-0.00009297,0.,0.,0.00009297,
 0.,-0.00009297,0.,0.,0.00009297,0.,0.,-0.81926293,0.,0.,0.81926293\\0.
 ,0.,-0.00000002,0.,0.,0.00000002\\\@


            THE IRISH PIG
 'TWAS AN EVENING IN NOVEMBER,
 AS I VERY WELL REMEMBER
 I WAS STROLLING DOWN THE STREET IN DRUNKEN PRIDE,
 BUT MY KNEES WERE ALL A'FLUTTER
 SO I LANDED IN THE GUTTER,
 AND A PIG CAME UP AND LAY DOWN BY MY SIDE.

 YES, I LAY THERE IN THE GUTTER
 THINKING THOUGHTS I COULD NOT UTTER
 WHEN A COLLEEN PASSING BY DID SOFTLY SAY,
 'YE CAN TELL A MAN THAT BOOZES
 BY THE COMPANY THAT HE CHOOSES.' -
 AT THAT, THE PIG GOT UP AND WALKED AWAY!
     -- THE ECONOMIST, AUGUST 23, 1986
 Job cpu time:  0 days  0 hours  1 minutes 42.7 seconds.
 File lengths (MBytes):  RWF=     15 Int=      0 D2E=      0 Chk=      7 Scr=      1
 Normal termination of Gaussian 03 at Tue Dec 16 16:45:12 2008.
