 Entering Gaussian System, Link 0=g03
 Input=TS_peroxy_peroxide.gjf
 Output=TS_peroxy_peroxide.log
 Initial command:
 /usr/local/g03/l1.exe /work/Gau-31763.inp -scrdir=/work/
 Entering Link 1 = /usr/local/g03/l1.exe PID=     31764.
  
 Copyright (c) 1988,1990,1992,1993,1995,1998,2003, Gaussian, Inc.
                  All Rights Reserved.
  
 This is the Gaussian(R) 03 program.  It is based on the
 the Gaussian(R) 98 system (copyright 1998, Gaussian, Inc.),
 the Gaussian(R) 94 system (copyright 1995, Gaussian, Inc.),
 the Gaussian 92(TM) system (copyright 1992, Gaussian, Inc.),
 the Gaussian 90(TM) system (copyright 1990, Gaussian, Inc.),
 the Gaussian 88(TM) system (copyright 1988, Gaussian, Inc.),
 the Gaussian 86(TM) system (copyright 1986, Carnegie Mellon
 University), and the Gaussian 82(TM) system (copyright 1983,
 Carnegie Mellon University). Gaussian is a federally registered
 trademark of Gaussian, Inc.
  
 This software contains proprietary and confidential information,
 including trade secrets, belonging to Gaussian, Inc.
  
 This software is provided under written license and may be
 used, copied, transmitted, or stored only in accord with that
 written license.
  
 The following legend is applicable only to US Government
 contracts under DFARS:
  
                    RESTRICTED RIGHTS LEGEND
  
 Use, duplication or disclosure by the US Government is subject
 to restrictions as set forth in subparagraph (c)(1)(ii) of the
 Rights in Technical Data and Computer Software clause at DFARS
 252.227-7013.
  
 Gaussian, Inc.
 Carnegie Office Park, Building 6, Pittsburgh, PA 15106 USA
  
 The following legend is applicable only to US Government
 contracts under FAR:
  
                    RESTRICTED RIGHTS LEGEND
  
 Use, reproduction and disclosure by the US Government is subject
 to restrictions as set forth in subparagraph (c) of the
 Commercial Computer Software - Restricted Rights clause at FAR
 52.227-19.
  
 Gaussian, Inc.
 Carnegie Office Park, Building 6, Pittsburgh, PA 15106 USA
  
  
 ---------------------------------------------------------------
 Warning -- This program may not be used in any manner that
 competes with the business of Gaussian, Inc. or will provide
 assistance to any competitor of Gaussian, Inc.  The licensee
 of this program is prohibited from giving any competitor of
 Gaussian, Inc. access to this program.  By using this program,
 the user acknowledges that Gaussian, Inc. is engaged in the
 business of creating and licensing software in the field of
 computational chemistry and represents and warrants to the
 licensee that it is not a competitor of Gaussian, Inc. and that
 it will not use this program in any manner prohibited above.
 ---------------------------------------------------------------
  

 Cite this work as:
 Gaussian 03, Revision B.05,
 M. J. Frisch, G. W. Trucks, H. B. Schlegel, G. E. Scuseria, 
 M. A. Robb, J. R. Cheeseman, J. A. Montgomery, Jr., T. Vreven, 
 K. N. Kudin, J. C. Burant, J. M. Millam, S. S. Iyengar, J. Tomasi, 
 V. Barone, B. Mennucci, M. Cossi, G. Scalmani, N. Rega, 
 G. A. Petersson, H. Nakatsuji, M. Hada, M. Ehara, K. Toyota, 
 R. Fukuda, J. Hasegawa, M. Ishida, T. Nakajima, Y. Honda, O. Kitao, 
 H. Nakai, M. Klene, X. Li, J. E. Knox, H. P. Hratchian, J. B. Cross, 
 C. Adamo, J. Jaramillo, R. Gomperts, R. E. Stratmann, O. Yazyev, 
 A. J. Austin, R. Cammi, C. Pomelli, J. W. Ochterski, P. Y. Ayala, 
 K. Morokuma, G. A. Voth, P. Salvador, J. J. Dannenberg, 
 V. G. Zakrzewski, S. Dapprich, A. D. Daniels, M. C. Strain, 
 O. Farkas, D. K. Malick, A. D. Rabuck, K. Raghavachari, 
 J. B. Foresman, J. V. Ortiz, Q. Cui, A. G. Baboul, S. Clifford, 
 J. Cioslowski, B. B. Stefanov, G. Liu, A. Liashenko, P. Piskorz, 
 I. Komaromi, R. L. Martin, D. J. Fox, T. Keith, M. A. Al-Laham, 
 C. Y. Peng, A. Nanayakkara, M. Challacombe, P. M. W. Gill, 
 B. Johnson, W. Chen, M. W. Wong, C. Gonzalez, and J. A. Pople, 
 Gaussian, Inc., Pittsburgh PA, 2003.
 
 **********************************************
 Gaussian 03:  x86-Linux-G03RevB.05 24-Oct-2003
                  21-Oct-2005 
 **********************************************
 %chk=TS_peroxy_peroxide
 %mem=1000MB
 ----------------------------------------------------------------------
 # opt=(qst2,maxcycle=100) freq ub3lyp/6-311+g(3df,2p) scf=(tight,maxcy
 cle=1000)
 ----------------------------------------------------------------------
 1/5=1,6=100,14=-1,18=20,26=3,27=202,38=1/1,3;
 2/9=110,17=6,18=5,40=1/2;
 3/5=4,6=6,7=216,11=2,16=1,25=1,30=1,74=-5/1,2,3;
 4/7=2/1;
 5/5=2,7=1000,32=2,38=5/2;
 6/7=2,8=2,9=2,10=2,28=1/1;
 7//1,2,3,16;
 1/5=1,6=100,14=-1,18=20,27=202/3(1);
 99//99;
 2/9=110/2;
 3/5=4,6=6,7=216,11=2,16=1,25=1,30=1,74=-5/1,2,3;
 4/5=5,7=2,16=3/1;
 5/5=2,7=1000,32=2,38=5/2;
 7//1,2,3,16;
 1/5=1,6=100,14=-1,18=20,27=202/3(-5);
 2/9=110/2;
 6/7=2,8=2,9=2,10=2,19=2,28=1/1;
 99/9=1/99;
 -------------
 acetyl peroxy
 -------------
 Symbolic Z-matrix:
 Charge =  0 Multiplicity = 2
 C                    -0.55365  -0.13186   0.00001 
 O                    -1.4705   -0.88101   0.00003 
 C                    -0.5544    1.36048  -0.00002 
 H                     0.46554   1.74179  -0.00009 
 H                    -1.03474   1.74095  -0.90012 
 H                    -1.08565   1.69472   0.88529 
 O                     0.74589  -0.76383  -0.00006 
 O                     1.76145   0.07619   0.00005 
 
 ---------------
 acetyl peroxide
 ---------------
 Symbolic Z-matrix:
 Charge =  0 Multiplicity = 2
 C                    -0.55365  -0.13186   0.00001 
 O                    -1.4705   -0.88101   0.00003 
 C                    -0.5544    1.36048  -0.00002 
 H                     1.43115   0.97758   0.00016 
 H                    -0.55466   1.74118  -1.02018 
 H                    -0.5545    1.69499   1.03236 
 O                     0.74589  -0.76383  -0.00006 
 O                     1.76145   0.07619   0.00005 
 
 Iteration  1 RMS(Cart)=  0.07151383 RMS(Int)=  0.21126481
 Iteration  2 RMS(Cart)=  0.04229273 RMS(Int)=  0.15020833
 Iteration  3 RMS(Cart)=  0.04132090 RMS(Int)=  0.09501897
 Iteration  4 RMS(Cart)=  0.04012815 RMS(Int)=  0.04608059
 Iteration  5 RMS(Cart)=  0.02754650 RMS(Int)=  0.01603307
 Iteration  6 RMS(Cart)=  0.00433400 RMS(Int)=  0.01501102
 Iteration  7 RMS(Cart)=  0.00001541 RMS(Int)=  0.01501101
 Iteration  8 RMS(Cart)=  0.00000017 RMS(Int)=  0.01501101

 GradGradGradGradGradGradGradGradGradGradGradGradGradGradGradGradGradGrad
 Berny optimization.
 Initialization pass.
                           ----------------------------
                           !    Initial Parameters    !
                           ! (Angstroms and Degrees)  !
 --------------------------                            --------------------------
 ! Name  Definition        TS        Reactant  Product Derivative Info.         !
 --------------------------------------------------------------------------------
 ! R1    R(1,2)             1.184     1.184     1.184  estimate D2E/DX2         !
 ! R2    R(1,3)             1.4873    1.4923    1.4923 estimate D2E/DX2         !
 ! R3    R(1,7)             1.443     1.4451    1.4451 estimate D2E/DX2         !
 ! R4    R(3,4)             1.5551    1.0889    2.0221 estimate D2E/DX2         !
 ! R5    R(3,5)             1.0889    1.0889    1.0889 estimate D2E/DX2         !
 ! R6    R(3,6)             1.0852    1.0852    1.0852 estimate D2E/DX2         !
 ! R7    R(7,8)             1.3213    1.318     1.318  estimate D2E/DX2         !
 ! R8    R(4,8)             1.5396    2.1104    0.96   estimate D2E/DX2         !
 ! A1    A(2,1,3)         129.7522  129.2233  129.2233 estimate D2E/DX2         !
 ! A2    A(2,1,7)         115.3432  114.8142  114.8142 estimate D2E/DX2         !
 ! A3    A(3,1,7)         114.9046  115.9625  115.9625 estimate D2E/DX2         !
 ! A4    A(1,3,4)          94.0498  110.4695   79.0561 estimate D2E/DX2         !
 ! A5    A(1,3,5)         112.5505  110.4658  110.4658 estimate D2E/DX2         !
 ! A6    A(1,3,6)         110.0637  107.9523  107.9523 estimate D2E/DX2         !
 ! A7    A(4,3,5)         101.4814  106.9053   93.814  estimate D2E/DX2         !
 ! A8    A(4,3,6)         103.1196  110.5323   93.3466 estimate D2E/DX2         !
 ! A9    A(5,3,6)         128.4261  110.5352  141.5819 estimate D2E/DX2         !
 ! A10   A(1,7,8)         114.2472  114.4707  114.4707 estimate D2E/DX2         !
 ! A11   A(4,8,7)         101.3922   91.7111  109.4712 estimate D2E/DX2         !
 ! D1    D(2,1,3,4)       179.971  -179.9962  179.9953 estimate D2E/DX2         !
 ! D2    D(2,1,3,5)       -75.8195  -61.9223  -89.9962 estimate D2E/DX2         !
 ! D3    D(2,1,3,6)        74.419    59.0414   90.0038 estimate D2E/DX2         !
 ! D4    D(7,1,3,4)        -0.0332    0.0      -0.0086 estimate D2E/DX2         !
 ! D5    D(7,1,3,5)       104.1763  118.0739   90.0    estimate D2E/DX2         !
 ! D6    D(7,1,3,6)      -105.5852 -120.9624  -90.0    estimate D2E/DX2         !
 ! D7    D(2,1,7,8)      -179.9852 -179.9942 -179.9942 estimate D2E/DX2         !
 ! D8    D(3,1,7,8)         0.0184    0.0091    0.0091 estimate D2E/DX2         !
 ! D9    D(1,7,8,4)         0.0085   -0.0092    0.0    estimate D2E/DX2         !
 --------------------------------------------------------------------------------
 Trust Radius=3.00D-01 FncErr=1.00D-07 GrdErr=1.00D-06
 Number of steps in this run= 100 maximum allowed number of steps= 100.
 Search for a saddle point of order  1.
 GradGradGradGradGradGradGradGradGradGradGradGradGradGradGradGradGradGrad

                          Input orientation:                          
 ---------------------------------------------------------------------
 Center     Atomic     Atomic              Coordinates (Angstroms)
 Number     Number      Type              X           Y           Z
 ---------------------------------------------------------------------
    1          6             0       -0.630073   -0.144694   -0.003442
    2          8             0       -1.483433   -0.965440   -0.005844
    3          6             0       -0.737217    1.338714   -0.006303
    4          1             0        0.802033    1.560018    0.000845
    5          1             0       -1.008757    1.735890   -0.983125
    6          1             0       -1.041411    1.691905    0.973712
    7          8             0        0.719087   -0.656469    0.003177
    8          8             0        1.653717    0.277507    0.006065
 ---------------------------------------------------------------------
                    Distance matrix (angstroms):
                    1          2          3          4          5
     1  C    0.000000
     2  O    1.183999   0.000000
     3  C    1.487275   2.421976   0.000000
     4  H    2.226429   3.406074   1.555094   0.000000
     5  H    2.154014   2.911628   1.088882   2.068354   0.000000
     6  H    2.120644   2.866427   1.085223   2.088576   1.957604
     7  O    1.442979   2.224104   2.470155   2.218040   3.111530
     8  O    2.322507   3.374429   2.615890   1.539554   3.192828
                    6          7          8
     6  H    0.000000
     7  O    3.091303   0.000000
     8  O    3.193835   1.321308   0.000000
 Stoichiometry    C2H3O3(2)
 Framework group  C1[X(C2H3O3)]
 Deg. of freedom    18
 Full point group                 C1      NOp   1
 Largest Abelian subgroup         C1      NOp   1
 Largest concise Abelian subgroup C1      NOp   1
                         Standard orientation:                         
 ---------------------------------------------------------------------
 Center     Atomic     Atomic              Coordinates (Angstroms)
 Number     Number      Type              X           Y           Z
 ---------------------------------------------------------------------
    1          6             0       -0.592638   -0.080257   -0.000679
    2          8             0       -1.573886   -0.742832   -0.001949
    3          6             0       -0.444316    1.399604    0.000851
    4          1             0        1.110113    1.354183    0.002585
    5          1             0       -0.647177    1.840620   -0.973837
    6          1             0       -0.680251    1.796404    0.982988
    7          8             0        0.649033   -0.815402   -0.000694
    8          8             0        1.729733   -0.055178    0.001047
 ---------------------------------------------------------------------
 Rotational constants (GHZ):      9.5003385      4.8188782      3.2771845
 Standard basis: 6-311+G(3df,2p) (5D, 7F)
 There are   222 symmetry adapted basis functions of A   symmetry.
 Integral buffers will be    262144 words long.
 Raffenetti 2 integral format.
 Two-electron integral symmetry is turned on.
   222 basis functions,   323 primitive gaussians,   252 cartesian basis functions
    20 alpha electrons       19 beta electrons
       nuclear repulsion energy       171.4514520958 Hartrees.
 NAtoms=    8 NActive=    8 NUniq=    8 SFac= 1.00D+00 NAtFMM=   60 Big=F
 One-electron integrals computed using PRISM.
 NBasis=   222 RedAO= T  NBF=   222
 NBsUse=   222 1.00D-06 NBFU=   222
 Harris functional with IExCor=  402 diagonalized for initial guess.
 ExpMin= 4.38D-02 ExpMax= 8.59D+03 ExpMxC= 1.30D+03 IAcc=2 IRadAn=         4 AccDes= 0.00D+00
 HarFok:  IExCor= 402 AccDes= 0.00D+00 IRadAn=         4 IDoV=1
 ScaDFX=  1.000000  1.000000  1.000000  1.000000
 Initial guess orbital symmetries:
 Alpha Orbitals:
       Occupied  (A) (A) (A) (A) (A) (A) (A) (A) (A) (A) (A) (A)
                 (A) (A) (A) (A) (A) (A) (A) (A)
       Virtual   (A) (A) (A) (A) (A) (A) (A) (A) (A) (A) (A) (A)
                 (A) (A) (A) (A) (A) (A) (A) (A) (A) (A) (A) (A)
                 (A) (A) (A) (A) (A) (A) (A) (A) (A) (A) (A) (A)
                 (A) (A) (A) (A) (A) (A) (A) (A) (A) (A) (A) (A)
                 (A) (A) (A) (A) (A) (A) (A) (A) (A) (A) (A) (A)
                 (A) (A) (A) (A) (A) (A) (A) (A) (A) (A) (A) (A)
                 (A) (A) (A) (A) (A) (A) (A) (A) (A) (A) (A) (A)
                 (A) (A) (A) (A) (A) (A) (A) (A) (A) (A) (A) (A)
                 (A) (A) (A) (A) (A) (A) (A) (A) (A) (A) (A) (A)
                 (A) (A) (A) (A) (A) (A) (A) (A) (A) (A) (A) (A)
                 (A) (A) (A) (A) (A) (A) (A) (A) (A) (A) (A) (A)
                 (A) (A) (A) (A) (A) (A) (A) (A) (A) (A) (A) (A)
                 (A) (A) (A) (A) (A) (A) (A) (A) (A) (A) (A) (A)
                 (A) (A) (A) (A) (A) (A) (A) (A) (A) (A) (A) (A)
                 (A) (A) (A) (A) (A) (A) (A) (A) (A) (A) (A) (A)
                 (A) (A) (A) (A) (A) (A) (A) (A) (A) (A) (A) (A)
                 (A) (A) (A) (A) (A) (A) (A) (A) (A) (A)
 Beta  Orbitals:
       Occupied  (A) (A) (A) (A) (A) (A) (A) (A) (A) (A) (A) (A)
                 (A) (A) (A) (A) (A) (A) (A)
       Virtual   (A) (A) (A) (A) (A) (A) (A) (A) (A) (A) (A) (A)
                 (A) (A) (A) (A) (A) (A) (A) (A) (A) (A) (A) (A)
                 (A) (A) (A) (A) (A) (A) (A) (A) (A) (A) (A) (A)
                 (A) (A) (A) (A) (A) (A) (A) (A) (A) (A) (A) (A)
                 (A) (A) (A) (A) (A) (A) (A) (A) (A) (A) (A) (A)
                 (A) (A) (A) (A) (A) (A) (A) (A) (A) (A) (A) (A)
                 (A) (A) (A) (A) (A) (A) (A) (A) (A) (A) (A) (A)
                 (A) (A) (A) (A) (A) (A) (A) (A) (A) (A) (A) (A)
                 (A) (A) (A) (A) (A) (A) (A) (A) (A) (A) (A) (A)
                 (A) (A) (A) (A) (A) (A) (A) (A) (A) (A) (A) (A)
                 (A) (A) (A) (A) (A) (A) (A) (A) (A) (A) (A) (A)
                 (A) (A) (A) (A) (A) (A) (A) (A) (A) (A) (A) (A)
                 (A) (A) (A) (A) (A) (A) (A) (A) (A) (A) (A) (A)
                 (A) (A) (A) (A) (A) (A) (A) (A) (A) (A) (A) (A)
                 (A) (A) (A) (A) (A) (A) (A) (A) (A) (A) (A) (A)
                 (A) (A) (A) (A) (A) (A) (A) (A) (A) (A) (A) (A)
                 (A) (A) (A) (A) (A) (A) (A) (A) (A) (A) (A)
 The electronic state of the initial guess is 2-A.
 <S**2> of initial guess= 0.7500
 Requested convergence on RMS density matrix=1.00D-08 within1000 cycles.
 Requested convergence on MAX density matrix=1.00D-06.
 Requested convergence on             energy=1.00D-06.
 No special actions if energy rises.
 EnCoef did     2 forward-backward iterations
 Restarting incremental Fock formation.
 SCF Done:  E(UB+HF-LYP) =  -303.593429467     A.U. after   22 cycles
             Convg  =    0.3158D-08             -V/T =  2.0040
             S**2   =   0.7555
 Annihilation of the first spin contaminant:
 S**2 before annihilation     0.7555,   after     0.7500

 **********************************************************************

            Population analysis using the SCF density.

 **********************************************************************

 Orbital symmetries:
 Alpha Orbitals:
       Occupied  (A) (A) (A) (A) (A) (A) (A) (A) (A) (A) (A) (A)
                 (A) (A) (A) (A) (A) (A) (A) (A)
       Virtual   (A) (A) (A) (A) (A) (A) (A) (A) (A) (A) (A) (A)
                 (A) (A) (A) (A) (A) (A) (A) (A) (A) (A) (A) (A)
                 (A) (A) (A) (A) (A) (A) (A) (A) (A) (A) (A) (A)
                 (A) (A) (A) (A) (A) (A) (A) (A) (A) (A) (A) (A)
                 (A) (A) (A) (A) (A) (A) (A) (A) (A) (A) (A) (A)
                 (A) (A) (A) (A) (A) (A) (A) (A) (A) (A) (A) (A)
                 (A) (A) (A) (A) (A) (A) (A) (A) (A) (A) (A) (A)
                 (A) (A) (A) (A) (A) (A) (A) (A) (A) (A) (A) (A)
                 (A) (A) (A) (A) (A) (A) (A) (A) (A) (A) (A) (A)
                 (A) (A) (A) (A) (A) (A) (A) (A) (A) (A) (A) (A)
                 (A) (A) (A) (A) (A) (A) (A) (A) (A) (A) (A) (A)
                 (A) (A) (A) (A) (A) (A) (A) (A) (A) (A) (A) (A)
                 (A) (A) (A) (A) (A) (A) (A) (A) (A) (A) (A) (A)
                 (A) (A) (A) (A) (A) (A) (A) (A) (A) (A) (A) (A)
                 (A) (A) (A) (A) (A) (A) (A) (A) (A) (A) (A) (A)
                 (A) (A) (A) (A) (A) (A) (A) (A) (A) (A) (A) (A)
                 (A) (A) (A) (A) (A) (A) (A) (A) (A) (A)
 Beta  Orbitals:
       Occupied  (A) (A) (A) (A) (A) (A) (A) (A) (A) (A) (A) (A)
                 (A) (A) (A) (A) (A) (A) (A)
       Virtual   (A) (A) (A) (A) (A) (A) (A) (A) (A) (A) (A) (A)
                 (A) (A) (A) (A) (A) (A) (A) (A) (A) (A) (A) (A)
                 (A) (A) (A) (A) (A) (A) (A) (A) (A) (A) (A) (A)
                 (A) (A) (A) (A) (A) (A) (A) (A) (A) (A) (A) (A)
                 (A) (A) (A) (A) (A) (A) (A) (A) (A) (A) (A) (A)
                 (A) (A) (A) (A) (A) (A) (A) (A) (A) (A) (A) (A)
                 (A) (A) (A) (A) (A) (A) (A) (A) (A) (A) (A) (A)
                 (A) (A) (A) (A) (A) (A) (A) (A) (A) (A) (A) (A)
                 (A) (A) (A) (A) (A) (A) (A) (A) (A) (A) (A) (A)
                 (A) (A) (A) (A) (A) (A) (A) (A) (A) (A) (A) (A)
                 (A) (A) (A) (A) (A) (A) (A) (A) (A) (A) (A) (A)
                 (A) (A) (A) (A) (A) (A) (A) (A) (A) (A) (A) (A)
                 (A) (A) (A) (A) (A) (A) (A) (A) (A) (A) (A) (A)
                 (A) (A) (A) (A) (A) (A) (A) (A) (A) (A) (A) (A)
                 (A) (A) (A) (A) (A) (A) (A) (A) (A) (A) (A) (A)
                 (A) (A) (A) (A) (A) (A) (A) (A) (A) (A) (A) (A)
                 (A) (A) (A) (A) (A) (A) (A) (A) (A) (A) (A)
 The electronic state is 2-A.
 Alpha  occ. eigenvalues --  -19.29872 -19.26685 -19.16911 -10.34121 -10.20398
 Alpha  occ. eigenvalues --   -1.25725  -1.11430  -0.92813  -0.76516  -0.63675
 Alpha  occ. eigenvalues --   -0.56692  -0.54479  -0.52574  -0.48380  -0.46249
 Alpha  occ. eigenvalues --   -0.42403  -0.40309  -0.34982  -0.34859  -0.27302
 Alpha virt. eigenvalues --   -0.04741  -0.00753   0.00988   0.03684   0.03963
 Alpha virt. eigenvalues --    0.04809   0.06545   0.07303   0.07935   0.08112
 Alpha virt. eigenvalues --    0.12983   0.13944   0.14484   0.15574   0.18889
 Alpha virt. eigenvalues --    0.19552   0.20323   0.21580   0.24004   0.24218
 Alpha virt. eigenvalues --    0.25306   0.26212   0.28350   0.28586   0.28882
 Alpha virt. eigenvalues --    0.30055   0.31023   0.34641   0.36705   0.36895
 Alpha virt. eigenvalues --    0.40638   0.45520   0.48685   0.48924   0.52395
 Alpha virt. eigenvalues --    0.52739   0.54364   0.56664   0.58931   0.61975
 Alpha virt. eigenvalues --    0.64708   0.66255   0.68876   0.70337   0.73560
 Alpha virt. eigenvalues --    0.76838   0.80142   0.82652   0.86206   0.87822
 Alpha virt. eigenvalues --    0.89911   0.91852   0.93010   0.96852   0.97488
 Alpha virt. eigenvalues --    0.98266   0.99785   1.01148   1.02544   1.04589
 Alpha virt. eigenvalues --    1.09075   1.09916   1.10321   1.12490   1.14918
 Alpha virt. eigenvalues --    1.16119   1.16767   1.17713   1.19545   1.25236
 Alpha virt. eigenvalues --    1.32120   1.32850   1.35514   1.37074   1.39789
 Alpha virt. eigenvalues --    1.41760   1.43980   1.50082   1.54011   1.57702
 Alpha virt. eigenvalues --    1.58464   1.67615   1.75184   1.76715   1.80413
 Alpha virt. eigenvalues --    1.83862   1.91338   1.92072   2.04219   2.11941
 Alpha virt. eigenvalues --    2.12457   2.21627   2.27530   2.31946   2.43460
 Alpha virt. eigenvalues --    2.58236   2.67631   2.72672   2.77576   2.78068
 Alpha virt. eigenvalues --    2.85357   2.86218   2.90571   2.92069   2.99876
 Alpha virt. eigenvalues --    3.05227   3.05328   3.09748   3.10989   3.16551
 Alpha virt. eigenvalues --    3.22845   3.23225   3.31588   3.33967   3.39766
 Alpha virt. eigenvalues --    3.43842   3.47622   3.49966   3.53543   3.57964
 Alpha virt. eigenvalues --    3.59674   3.65233   3.69176   3.70523   3.80668
 Alpha virt. eigenvalues --    3.88355   3.92728   3.96651   4.04715   4.10382
 Alpha virt. eigenvalues --    4.13906   4.15992   4.20892   4.23914   4.32963
 Alpha virt. eigenvalues --    4.35461   4.43849   4.52469   4.56822   4.67079
 Alpha virt. eigenvalues --    4.68918   4.71317   4.72811   4.91723   4.93196
 Alpha virt. eigenvalues --    4.96146   4.96842   5.00809   5.04694   5.04888
 Alpha virt. eigenvalues --    5.07032   5.20781   5.21628   5.28117   5.32603
 Alpha virt. eigenvalues --    5.39942   5.42318   5.45425   5.52241   5.56207
 Alpha virt. eigenvalues --    5.59701   5.60144   5.67883   5.72354   5.86462
 Alpha virt. eigenvalues --    6.09444   6.31535   6.36440   6.46146   6.52597
 Alpha virt. eigenvalues --    6.78411   7.05173   7.22033   7.25457   7.32574
 Alpha virt. eigenvalues --    7.43010   7.62318   7.68836   7.82615   7.88454
 Alpha virt. eigenvalues --    8.18887   8.26739  14.04224  14.09338  14.15233
 Alpha virt. eigenvalues --   14.21020  14.24162  14.26099  14.31921  14.34826
 Alpha virt. eigenvalues --   14.43005  14.50827  14.66772  14.68426  14.88682
 Alpha virt. eigenvalues --   15.05215  15.56735  24.34315  25.01845  49.93356
 Alpha virt. eigenvalues --   50.05666  50.45412
  Beta  occ. eigenvalues --  -19.28942 -19.24708 -19.16731 -10.34189 -10.20423
  Beta  occ. eigenvalues --   -1.23125  -1.10912  -0.89119  -0.76382  -0.62398
  Beta  occ. eigenvalues --   -0.53531  -0.52202  -0.52023  -0.45938  -0.45629
  Beta  occ. eigenvalues --   -0.40338  -0.39187  -0.34589  -0.26666
  Beta virt. eigenvalues --   -0.18639  -0.03868  -0.00635   0.01597   0.03799
  Beta virt. eigenvalues --    0.04081   0.05052   0.06820   0.07801   0.07976
  Beta virt. eigenvalues --    0.08380   0.13023   0.14815   0.14894   0.15784
  Beta virt. eigenvalues --    0.18944   0.19666   0.20492   0.21654   0.24198
  Beta virt. eigenvalues --    0.24602   0.25418   0.26449   0.28380   0.28643
  Beta virt. eigenvalues --    0.28956   0.30170   0.31086   0.34823   0.36888
  Beta virt. eigenvalues --    0.37047   0.40643   0.45600   0.48800   0.48948
  Beta virt. eigenvalues --    0.52571   0.52730   0.54381   0.56826   0.58924
  Beta virt. eigenvalues --    0.62142   0.64870   0.66393   0.68855   0.70436
  Beta virt. eigenvalues --    0.73682   0.76991   0.80736   0.82919   0.87059
  Beta virt. eigenvalues --    0.89249   0.91725   0.92061   0.93310   0.97590
  Beta virt. eigenvalues --    0.98526   0.98761   1.00110   1.01816   1.04015
  Beta virt. eigenvalues --    1.04822   1.09446   1.11077   1.11411   1.13061
  Beta virt. eigenvalues --    1.15093   1.16539   1.17351   1.18253   1.19709
  Beta virt. eigenvalues --    1.25371   1.32298   1.33042   1.35890   1.37227
  Beta virt. eigenvalues --    1.39927   1.43006   1.44174   1.50358   1.54137
  Beta virt. eigenvalues --    1.57924   1.58563   1.67911   1.75224   1.77063
  Beta virt. eigenvalues --    1.80509   1.84325   1.91659   1.92110   2.04695
  Beta virt. eigenvalues --    2.12110   2.12609   2.21942   2.27528   2.32168
  Beta virt. eigenvalues --    2.44359   2.58288   2.67677   2.72606   2.77932
  Beta virt. eigenvalues --    2.78121   2.85451   2.86716   2.90598   2.92200
  Beta virt. eigenvalues --    3.00011   3.06089   3.07676   3.10956   3.11686
  Beta virt. eigenvalues --    3.16972   3.23195   3.23554   3.32517   3.38944
  Beta virt. eigenvalues --    3.40929   3.45623   3.49114   3.52760   3.55905
  Beta virt. eigenvalues --    3.58916   3.60072   3.65770   3.69678   3.72211
  Beta virt. eigenvalues --    3.80805   3.89653   3.92790   3.96853   4.04933
  Beta virt. eigenvalues --    4.10781   4.14149   4.16117   4.21078   4.24095
  Beta virt. eigenvalues --    4.32980   4.35635   4.44077   4.52586   4.60692
  Beta virt. eigenvalues --    4.68219   4.70087   4.72304   4.73595   4.92514
  Beta virt. eigenvalues --    4.97410   4.99159   5.00685   5.05431   5.05553
  Beta virt. eigenvalues --    5.06724   5.08517   5.22342   5.23004   5.30767
  Beta virt. eigenvalues --    5.34228   5.40971   5.44147   5.46654   5.52657
  Beta virt. eigenvalues --    5.57057   5.60475   5.60812   5.69192   5.73096
  Beta virt. eigenvalues --    5.87623   6.10059   6.31930   6.39559   6.46482
  Beta virt. eigenvalues --    6.52818   6.78467   7.05062   7.21866   7.25343
  Beta virt. eigenvalues --    7.32510   7.42890   7.63387   7.68718   7.82563
  Beta virt. eigenvalues --    7.88418   8.18850   8.26765  14.10077  14.13204
  Beta virt. eigenvalues --   14.22426  14.22608  14.30264  14.30519  14.32654
  Beta virt. eigenvalues --   14.35741  14.45548  14.56168  14.67757  14.69232
  Beta virt. eigenvalues --   14.89100  15.05755  15.58711  24.34286  25.01775
  Beta virt. eigenvalues --   49.94902  50.07011  50.45598
          Condensed to atoms (all electrons):
              1          2          3          4          5          6
     1  C    5.398485   0.065906  -0.210388  -0.019904  -0.056398  -0.055541
     2  O    0.065906   8.717485  -0.047866   0.003472  -0.004542  -0.004838
     3  C   -0.210388  -0.047866   5.646814   0.379709   0.451249   0.451367
     4  H   -0.019904   0.003472   0.379709   0.604372  -0.013451  -0.012153
     5  H   -0.056398  -0.004542   0.451249  -0.013451   0.436769  -0.010644
     6  H   -0.055541  -0.004838   0.451367  -0.012153  -0.010644   0.434809
     7  O    0.029850  -0.119243  -0.070527  -0.020070  -0.000493  -0.000660
     8  O   -0.130995   0.016476  -0.051331  -0.074538   0.001051   0.000776
              7          8
     1  C    0.029850  -0.130995
     2  O   -0.119243   0.016476
     3  C   -0.070527  -0.051331
     4  H   -0.020070  -0.074538
     5  H   -0.000493   0.001051
     6  H   -0.000660   0.000776
     7  O    8.381873   0.024722
     8  O    0.024722   8.337398
 Mulliken atomic charges:
              1
     1  C    0.978985
     2  O   -0.626850
     3  C   -0.549029
     4  H    0.152563
     5  H    0.196458
     6  H    0.196884
     7  O   -0.225452
     8  O   -0.123559
 Sum of Mulliken charges=   0.00000
 Atomic charges with hydrogens summed into heavy atoms:
              1
     1  C    0.978985
     2  O   -0.626850
     3  C   -0.155687
     4  H    0.000000
     5  H    0.000000
     6  H    0.000000
     7  O   -0.225452
     8  O    0.029004
 Sum of Mulliken charges=   0.00000
          Atomic-Atomic Spin Densities.
              1          2          3          4          5          6
     1  C   -0.039651  -0.007030   0.001812  -0.000596   0.000389   0.000618
     2  O   -0.007030   0.080711   0.000380   0.000036  -0.000181  -0.000217
     3  C    0.001812   0.000380  -0.018963   0.002713  -0.000829  -0.001071
     4  H   -0.000596   0.000036   0.002713   0.006909   0.000006  -0.000084
     5  H    0.000389  -0.000181  -0.000829   0.000006  -0.000473  -0.000111
     6  H    0.000618  -0.000217  -0.001071  -0.000084  -0.000111  -0.000457
     7  O    0.003318  -0.006999  -0.003374   0.000358   0.000321   0.000354
     8  O    0.001367   0.001335   0.004458  -0.006042  -0.000242  -0.000208
              7          8
     1  C    0.003318   0.001367
     2  O   -0.006999   0.001335
     3  C   -0.003374   0.004458
     4  H    0.000358  -0.006042
     5  H    0.000321  -0.000242
     6  H    0.000354  -0.000208
     7  O    0.414620  -0.120896
     8  O   -0.120896   0.818131
 Mulliken atomic spin densities:
              1
     1  C   -0.039773
     2  O    0.068035
     3  C   -0.014873
     4  H    0.003300
     5  H   -0.001120
     6  H   -0.001175
     7  O    0.287703
     8  O    0.697903
 Sum of Mulliken spin densities=   1.00000
 Electronic spatial extent (au):  <R**2>=   368.8275
 Charge=     0.0000 electrons
 Dipole moment (field-independent basis, Debye):
    X=     0.7967    Y=     1.7371    Z=    -0.0005  Tot=     1.9111
 Quadrupole moment (field-independent basis, Debye-Ang):
   XX=   -33.7657   YY=   -30.1393   ZZ=   -26.5901
   XY=    -1.4039   XZ=    -0.0404   YZ=    -0.0760
 Traceless Quadrupole moment (field-independent basis, Debye-Ang):
   XX=    -3.6006   YY=     0.0257   ZZ=     3.5749
   XY=    -1.4039   XZ=    -0.0404   YZ=    -0.0760
 Octapole moment (field-independent basis, Debye-Ang**2):
  XXX=     9.5624  YYY=    -6.1713  ZZZ=     0.0098  XYY=     1.6597
  XXY=     1.7989  XXZ=     0.1060  XZZ=     0.2043  YZZ=    -0.6639
  YYZ=    -0.2085  XYZ=    -0.0861
 Hexadecapole moment (field-independent basis, Debye-Ang**3):
 XXXX=  -263.4630 YYYY=  -177.5421 ZZZZ=   -30.4360 XXXY=     2.5521
 XXXZ=     0.0298 YYYX=    -3.4053 YYYZ=    -0.5993 ZZZX=    -0.0859
 ZZZY=    -0.0701 XXYY=   -71.9516 XXZZ=   -44.9062 YYZZ=   -29.7862
 XXYZ=     0.0419 YYXZ=    -0.0312 ZZXY=    -1.7547
 N-N= 1.714514520958D+02 E-N=-1.056527644198D+03  KE= 3.023902772649D+02
                          Isotropic Fermi Contact Couplings
        Atom                 a.u.       MegaHertz       Gauss      10(-4) cm-1
     1  C(13)             -0.00890     -10.00266      -3.56920      -3.33653
     2  O(17)              0.00435      -2.63884      -0.94160      -0.88022
     3  C(13)             -0.00287      -3.22255      -1.14988      -1.07493
     4  H(1)               0.00115       5.12788       1.82976       1.71048
     5  H(1)              -0.00052      -2.34111      -0.83537      -0.78091
     6  H(1)              -0.00059      -2.62062      -0.93510      -0.87415
     7  O(17)              0.04209     -25.51239      -9.10346      -8.51002
     8  O(17)              0.06189     -37.51598     -13.38664     -12.51399
 --------------------------------------------------------
       Center         ----  Spin Dipole Couplings  ----
                      3XX-RR        3YY-RR        3ZZ-RR
 --------------------------------------------------------
     1   Atom        0.042193      0.008079     -0.050273
     2   Atom       -0.149863     -0.157503      0.307366
     3   Atom       -0.011307      0.010655      0.000652
     4   Atom       -0.017957      0.037583     -0.019626
     5   Atom        0.001563      0.002635     -0.004198
     6   Atom        0.001749      0.002550     -0.004299
     7   Atom       -0.763939     -0.789072      1.553011
     8   Atom       -1.572660     -1.526648      3.099308
 --------------------------------------------------------
                        XY            XZ            YZ
 --------------------------------------------------------
     1   Atom       -0.005641     -0.000415      0.000704
     2   Atom        0.015279     -0.009647      0.018613
     3   Atom       -0.013319     -0.000287     -0.000030
     4   Atom       -0.022887     -0.000318      0.000533
     5   Atom       -0.005140      0.001850     -0.001660
     6   Atom       -0.005118     -0.001949      0.001714
     7   Atom       -0.035267      0.004795     -0.026162
     8   Atom       -0.024291      0.061719     -0.105967
 --------------------------------------------------------


 ---------------------------------------------------------------------------------
              Anisotropic Spin Dipole Couplings in Principal Axis System
 ---------------------------------------------------------------------------------

       Atom             a.u.   MegaHertz   Gauss  10(-4) cm-1        Axes

              Baa    -0.0503    -6.747    -2.408    -2.251  0.0038 -0.0117  0.9999
     1 C(13)  Bbb     0.0072     0.963     0.344     0.321  0.1592  0.9872  0.0109
              Bcc     0.0431     5.784     2.064     1.929  0.9872 -0.1591 -0.0056
 
              Baa    -0.1703    12.324     4.398     4.111 -0.6108  0.7906 -0.0431
     2 O(17)  Bbb    -0.1380     9.983     3.562     3.330  0.7916  0.6110 -0.0084
              Bcc     0.3083   -22.308    -7.960    -7.441 -0.0197  0.0393  0.9990
 
              Baa    -0.0176    -2.361    -0.842    -0.787  0.9044  0.4265  0.0150
     3 C(13)  Bbb     0.0007     0.088     0.031     0.029 -0.0110 -0.0117  0.9999
              Bcc     0.0169     2.273     0.811     0.758 -0.4266  0.9044  0.0058
 
              Baa    -0.0262   -13.966    -4.983    -4.658  0.9411  0.3377  0.0183
     4 H(1)   Bbb    -0.0196   -10.473    -3.737    -3.494 -0.0141 -0.0149  0.9998
              Bcc     0.0458    24.439     8.720     8.152 -0.3379  0.9411  0.0093
 
              Baa    -0.0047    -2.533    -0.904    -0.845 -0.2460  0.0464  0.9682
     5 H(1)   Bbb    -0.0030    -1.616    -0.577    -0.539  0.7106  0.6880  0.1476
              Bcc     0.0078     4.150     1.481     1.384 -0.6592  0.7242 -0.2022
 
              Baa    -0.0049    -2.606    -0.930    -0.869  0.2396 -0.0585  0.9691
     6 H(1)   Bbb    -0.0029    -1.573    -0.561    -0.525  0.7047  0.6971 -0.1321
              Bcc     0.0078     4.179     1.491     1.394 -0.6678  0.7146  0.2083
 
              Baa    -0.8141    58.907    21.019    19.649  0.5747  0.8183  0.0079
     7 O(17)  Bbb    -0.7392    53.490    19.086    17.842  0.8184 -0.5746 -0.0083
              Bcc     1.5533  -112.397   -40.106   -37.492  0.0022 -0.0112  0.9999
 
              Baa    -1.5832   114.556    40.877    38.212  0.9210  0.3896 -0.0033
     8 O(17)  Bbb    -1.5194   109.943    39.230    36.673 -0.3894  0.9207  0.0263
              Bcc     3.1026  -224.499   -80.107   -74.885  0.0133 -0.0230  0.9996
 

 ---------------------------------------------------------------------------------

 ***** Axes restored to original set *****
 -------------------------------------------------------------------
 Center     Atomic                   Forces (Hartrees/Bohr)
 Number     Number              X              Y              Z
 -------------------------------------------------------------------
    1          6          -0.032076485    0.029955984   -0.002584314
    2          8           0.007557205   -0.010323579    0.000557575
    3          6           0.096532079   -0.003304768   -0.000357100
    4          1          -0.085798169   -0.002654546    0.000520770
    5          1          -0.012233635    0.003577586    0.012172377
    6          1          -0.011766699    0.007773902   -0.010350408
    7          8           0.023693267    0.003853310   -0.000066021
    8          8           0.014092437   -0.028877889    0.000107121
 -------------------------------------------------------------------
 Cartesian Forces:  Max     0.096532079 RMS     0.029594823

 GradGradGradGradGradGradGradGradGradGradGradGradGradGradGradGradGradGrad
 Berny optimization.
 Internal  Forces:  Max     0.069233480 RMS     0.016594581
 Search for a saddle point.
 Step number   1 out of a maximum of 100
 All quantities printed in internal units (Hartrees-Bohrs-Radians)
 Second derivative matrix not updated -- first step.
 LST/QST climbing along tangent vector
     Eigenvalues ---    0.09715   0.00972   0.01757   0.07149   0.08746
     Eigenvalues ---    0.00961   0.10706   0.15917   0.16000   0.17327
     Eigenvalues ---    0.22981   0.25000   0.32836   0.34942   0.35371
     Eigenvalues ---    0.38722   0.59373   1.132921000.000001000.00000
     Eigenvalues --- 1000.000001000.000001000.000001000.000001000.00000
     Eigenvalues --- 1000.000001000.000001000.00000
 Eigenvectors required to have negative eigenvalues:
                          R1        R2        R3        R4        R5
         1              0.00000  -0.00047  -0.00030  -0.56524   0.00000
                          R6        R7        R8        A1        A2
         1              0.00000   0.00023   0.69729   0.00057   0.00057
                          A3        A4        A5        A6        A7
         1             -0.00114   0.17394  -0.00258  -0.00253   0.07249
                          A8        A9        A10       A11       D1
         1              0.09587  -0.17676  -0.00067  -0.09896  -0.00015
                          D2        D3        D4        D5        D6
         1              0.15656  -0.17251  -0.00015   0.15656  -0.17251
                          D7        D8        D9
         1              0.00001   0.00001  -0.00004
 QST in optimization variable space.
 Eigenvectors 1 and   6 swapped, overlap=  1.0000
                        Tangent   TS vect  // Eig F  Eigenval
       1  R1            0.00000   0.00000   0.06167   0.09715
       2  R2            0.00047  -0.00047  -0.00005   0.00972
       3  R3            0.00030  -0.00030  -0.00005   0.01757
       4  R4            0.56524  -0.56524  -0.00713   0.07149
       5  R5            0.00000   0.00000  -0.00121   0.08746
       6  R6            0.00000   0.00000   0.00014   0.00961
       7  R7           -0.00023   0.00023  -0.02180   0.10706
       8  R8           -0.69729   0.69729  -0.00498   0.15917
       9  A1           -0.00057   0.00057   0.00221   0.16000
      10  A2           -0.00057   0.00057  -0.00999   0.17327
      11  A3            0.00114  -0.00114  -0.00036   0.22981
      12  A4           -0.17394   0.17394   0.01002   0.25000
      13  A5            0.00258  -0.00258  -0.00246   0.32836
      14  A6            0.00253  -0.00253  -0.00328   0.34942
      15  A7           -0.07249   0.07249  -0.00176   0.35371
      16  A8           -0.09587   0.09587   0.01182   0.38722
      17  A9            0.17676  -0.17676  -0.00768   0.59373
      18  A10           0.00067  -0.00067   0.00086   1.13292
      19  A11           0.09896  -0.09896   0.000001000.00000
      20  D1            0.00015  -0.00015   0.000001000.00000
      21  D2           -0.15656   0.15656   0.000001000.00000
      22  D3            0.17251  -0.17251   0.000001000.00000
      23  D4            0.00015  -0.00015   0.000001000.00000
      24  D5           -0.15656   0.15656   0.000001000.00000
      25  D6            0.17251  -0.17251   0.000001000.00000
      26  D7           -0.00001   0.00001   0.000001000.00000
      27  D8           -0.00001   0.00001   0.000001000.00000
      28  D9            0.00004  -0.00004   0.000001000.00000
 RFO step:  Lambda0=1.270777934D-01 Lambda=-6.49128261D-03.
 Linear search not attempted -- option 19 set.
 Maximum step size (   0.300) exceeded in Quadratic search.
    -- Step size scaled by   0.145
 Iteration  1 RMS(Cart)=  0.03379356 RMS(Int)=  0.00436071
 Iteration  2 RMS(Cart)=  0.00343222 RMS(Int)=  0.00068132
 Iteration  3 RMS(Cart)=  0.00000803 RMS(Int)=  0.00068128
 Iteration  4 RMS(Cart)=  0.00000000 RMS(Int)=  0.00068128
 Variable       Old X    -DE/DX   Delta X   Delta X   Delta X     New X
                                 (Linear)    (Quad)   (Total)
    R1        2.23743   0.00171   0.00000   0.00011   0.00011   2.23754
    R2        2.81054  -0.00674   0.00000  -0.00108  -0.00064   2.80990
    R3        2.72683   0.02325   0.00000   0.00421   0.00428   2.73111
    R4        2.93870  -0.06923   0.00000   0.14496   0.14510   3.08380
    R5        2.05769  -0.00656   0.00000  -0.00133  -0.00133   2.05635
    R6        2.05077  -0.00352   0.00000  -0.00071  -0.00071   2.05007
    R7        2.49691  -0.01478   0.00000  -0.00194  -0.00234   2.49457
    R8        2.90934   0.01976   0.00000  -0.22215  -0.22248   2.68686
    A1        2.26460   0.01440   0.00000   0.00393   0.00360   2.26821
    A2        2.01312  -0.01394   0.00000  -0.00407  -0.00439   2.00873
    A3        2.00546  -0.00046   0.00000   0.00014   0.00079   2.00625
    A4        1.64148  -0.00809   0.00000  -0.06047  -0.05963   1.58185
    A5        1.96438   0.00359   0.00000   0.00323   0.00154   1.96592
    A6        1.92097   0.00915   0.00000   0.00556   0.00387   1.92484
    A7        1.77119   0.00817   0.00000  -0.02184  -0.02257   1.74861
    A8        1.79978   0.00631   0.00000  -0.03072  -0.03141   1.76837
    A9        2.24146  -0.01645   0.00000   0.05152   0.04964   2.29110
   A10        1.99399  -0.00104   0.00000  -0.00117  -0.00146   1.99253
   A11        1.76963  -0.02442   0.00000   0.01975   0.01885   1.78848
    D1        3.14109  -0.00050   0.00000  -0.00017  -0.00019   3.14090
    D2       -1.32330   0.00549   0.00000  -0.05055  -0.05064  -1.37394
    D3        1.29886  -0.00568   0.00000   0.05612   0.05623   1.35508
    D4       -0.00058  -0.00038   0.00000   0.00042   0.00040  -0.00018
    D5        1.81822   0.00561   0.00000  -0.04996  -0.05005   1.76816
    D6       -1.84281  -0.00556   0.00000   0.05670   0.05681  -1.78600
    D7       -3.14133   0.00022   0.00000   0.00025   0.00024  -3.14109
    D8        0.00032   0.00011   0.00000  -0.00025  -0.00025   0.00007
    D9        0.00015   0.00022   0.00000  -0.00003  -0.00004   0.00011
         Item               Value     Threshold  Converged?
 Maximum Force            0.069233     0.000450     NO 
 RMS     Force            0.016595     0.000300     NO 
 Maximum Displacement     0.109269     0.001800     NO 
 RMS     Displacement     0.036218     0.001200     NO 
 Predicted change in Energy= 2.082417D-02
 GradGradGradGradGradGradGradGradGradGradGradGradGradGradGradGradGradGrad

                          Input orientation:                          
 ---------------------------------------------------------------------
 Center     Atomic     Atomic              Coordinates (Angstroms)
 Number     Number      Type              X           Y           Z
 ---------------------------------------------------------------------
    1          6             0       -0.642196   -0.141803   -0.004410
    2          8             0       -1.478628   -0.979875   -0.007318
    3          6             0       -0.774296    1.339252   -0.007152
    4          1             0        0.849403    1.502195    0.001696
    5          1             0       -1.002341    1.737613   -0.993778
    6          1             0       -1.029514    1.695935    0.985087
    7          8             0        0.717131   -0.632605    0.003611
    8          8             0        1.634386    0.316718    0.007350
 ---------------------------------------------------------------------
                    Distance matrix (angstroms):
                    1          2          3          4          5
     1  C    0.000000
     2  O    1.184057   0.000000
     3  C    1.486937   2.423723   0.000000
     4  H    2.219828   3.403010   1.631879   0.000000
     5  H    2.154242   2.929965   1.088176   2.115502   0.000000
     6  H    2.122828   2.889035   1.084849   2.129536   1.979490
     7  O    1.445241   2.223077   2.472386   2.138894   3.093429
     8  O    2.322328   3.372272   2.616780   1.421825   3.158090
                    6          7          8
     6  H    0.000000
     7  O    3.071833   0.000000
     8  O    3.155087   1.320069   0.000000
 Stoichiometry    C2H3O3(2)
 Framework group  C1[X(C2H3O3)]
 Deg. of freedom    18
 Full point group                 C1      NOp   1
 Largest Abelian subgroup         C1      NOp   1
 Largest concise Abelian subgroup C1      NOp   1
                         Standard orientation:                         
 ---------------------------------------------------------------------
 Center     Atomic     Atomic              Coordinates (Angstroms)
 Number     Number      Type              X           Y           Z
 ---------------------------------------------------------------------
    1          6             0       -0.598407   -0.071741   -0.000832
    2          8             0       -1.581902   -0.731081   -0.001641
    3          6             0       -0.439870    1.406720    0.000627
    4          1             0        1.184530    1.250667    0.001890
    5          1             0       -0.590353    1.845094   -0.983908
    6          1             0       -0.616502    1.802950    0.994961
    7          8             0        0.639491   -0.817616   -0.000667
    8          8             0        1.723909   -0.064877    0.000843
 ---------------------------------------------------------------------
 Rotational constants (GHZ):      9.5264460      4.8199184      3.2826306
 Standard basis: 6-311+G(3df,2p) (5D, 7F)
 There are   222 symmetry adapted basis functions of A   symmetry.
 Integral buffers will be    262144 words long.
 Raffenetti 2 integral format.
 Two-electron integral symmetry is turned on.
   222 basis functions,   323 primitive gaussians,   252 cartesian basis functions
    20 alpha electrons       19 beta electrons
       nuclear repulsion energy       171.6660647443 Hartrees.
 NAtoms=    8 NActive=    8 NUniq=    8 SFac= 1.00D+00 NAtFMM=   60 Big=F
 One-electron integrals computed using PRISM.
 NBasis=   222 RedAO= T  NBF=   222
 NBsUse=   222 1.00D-06 NBFU=   222
 Initial guess read from the read-write file:
 Initial guess orbital symmetries:
 Alpha Orbitals:
       Occupied  (A) (A) (A) (A) (A) (A) (A) (A) (A) (A) (A) (A)
                 (A) (A) (A) (A) (A) (A) (A) (A)
       Virtual   (A) (A) (A) (A) (A) (A) (A) (A) (A) (A) (A) (A)
                 (A) (A) (A) (A) (A) (A) (A) (A) (A) (A) (A) (A)
                 (A) (A) (A) (A) (A) (A) (A) (A) (A) (A) (A) (A)
                 (A) (A) (A) (A) (A) (A) (A) (A) (A) (A) (A) (A)
                 (A) (A) (A) (A) (A) (A) (A) (A) (A) (A) (A) (A)
                 (A) (A) (A) (A) (A) (A) (A) (A) (A) (A) (A) (A)
                 (A) (A) (A) (A) (A) (A) (A) (A) (A) (A) (A) (A)
                 (A) (A) (A) (A) (A) (A) (A) (A) (A) (A) (A) (A)
                 (A) (A) (A) (A) (A) (A) (A) (A) (A) (A) (A) (A)
                 (A) (A) (A) (A) (A) (A) (A) (A) (A) (A) (A) (A)
                 (A) (A) (A) (A) (A) (A) (A) (A) (A) (A) (A) (A)
                 (A) (A) (A) (A) (A) (A) (A) (A) (A) (A) (A) (A)
                 (A) (A) (A) (A) (A) (A) (A) (A) (A) (A) (A) (A)
                 (A) (A) (A) (A) (A) (A) (A) (A) (A) (A) (A) (A)
                 (A) (A) (A) (A) (A) (A) (A) (A) (A) (A) (A) (A)
                 (A) (A) (A) (A) (A) (A) (A) (A) (A) (A) (A) (A)
                 (A) (A) (A) (A) (A) (A) (A) (A) (A) (A)
 Beta  Orbitals:
       Occupied  (A) (A) (A) (A) (A) (A) (A) (A) (A) (A) (A) (A)
                 (A) (A) (A) (A) (A) (A) (A)
       Virtual   (A) (A) (A) (A) (A) (A) (A) (A) (A) (A) (A) (A)
                 (A) (A) (A) (A) (A) (A) (A) (A) (A) (A) (A) (A)
                 (A) (A) (A) (A) (A) (A) (A) (A) (A) (A) (A) (A)
                 (A) (A) (A) (A) (A) (A) (A) (A) (A) (A) (A) (A)
                 (A) (A) (A) (A) (A) (A) (A) (A) (A) (A) (A) (A)
                 (A) (A) (A) (A) (A) (A) (A) (A) (A) (A) (A) (A)
                 (A) (A) (A) (A) (A) (A) (A) (A) (A) (A) (A) (A)
                 (A) (A) (A) (A) (A) (A) (A) (A) (A) (A) (A) (A)
                 (A) (A) (A) (A) (A) (A) (A) (A) (A) (A) (A) (A)
                 (A) (A) (A) (A) (A) (A) (A) (A) (A) (A) (A) (A)
                 (A) (A) (A) (A) (A) (A) (A) (A) (A) (A) (A) (A)
                 (A) (A) (A) (A) (A) (A) (A) (A) (A) (A) (A) (A)
                 (A) (A) (A) (A) (A) (A) (A) (A) (A) (A) (A) (A)
                 (A) (A) (A) (A) (A) (A) (A) (A) (A) (A) (A) (A)
                 (A) (A) (A) (A) (A) (A) (A) (A) (A) (A) (A) (A)
                 (A) (A) (A) (A) (A) (A) (A) (A) (A) (A) (A) (A)
                 (A) (A) (A) (A) (A) (A) (A) (A) (A) (A) (A)
 <S**2> of initial guess= 0.7555
 Harris functional with IExCor=  402 diagonalized for initial guess.
 ExpMin= 4.38D-02 ExpMax= 8.59D+03 ExpMxC= 1.30D+03 IAcc=2 IRadAn=         4 AccDes= 0.00D+00
 HarFok:  IExCor= 402 AccDes= 0.00D+00 IRadAn=         4 IDoV=1
 ScaDFX=  1.000000  1.000000  1.000000  1.000000
 Requested convergence on RMS density matrix=1.00D-08 within1000 cycles.
 Requested convergence on MAX density matrix=1.00D-06.
 Requested convergence on             energy=1.00D-06.
 No special actions if energy rises.
 Rare condition: small coef for last iteration:  0.000D+00
 Rare condition: small coef for last iteration:  0.000D+00
 SCF Done:  E(UB+HF-LYP) =  -303.577586854     A.U. after   17 cycles
             Convg  =    0.7485D-08             -V/T =  2.0039
             S**2   =   0.7560
 Annihilation of the first spin contaminant:
 S**2 before annihilation     0.7560,   after     0.7500
 ***** Axes restored to original set *****
 -------------------------------------------------------------------
 Center     Atomic                   Forces (Hartrees/Bohr)
 Number     Number              X              Y              Z
 -------------------------------------------------------------------
    1          6          -0.042938930    0.039322034   -0.003081634
    2          8           0.010306739   -0.013109622    0.000622001
    3          6           0.090915875   -0.012835647    0.000067632
    4          1          -0.077558306   -0.000542859    0.000296508
    5          1          -0.012943131    0.005091651    0.012752720
    6          1          -0.012751460    0.008937015   -0.010974494
    7          8           0.030383358    0.003032274    0.000484555
    8          8           0.014585855   -0.029894846   -0.000167288
 -------------------------------------------------------------------
 Cartesian Forces:  Max     0.090915875 RMS     0.029497261

 GradGradGradGradGradGradGradGradGradGradGradGradGradGradGradGradGradGrad
 Berny optimization.
 Internal  Forces:  Max     0.059606972 RMS     0.016352526
 Search for a saddle point.
 Step number   2 out of a maximum of 100
 All quantities printed in internal units (Hartrees-Bohrs-Radians)
 Update second derivatives using D2CorX and points  1  2
 LST/QST climbing along tangent vector
     Eigenvalues ---   -0.01791   0.00965   0.00971   0.01797   0.06344
     Eigenvalues ---    0.08774   0.10770   0.15879   0.16000   0.17074
     Eigenvalues ---    0.22993   0.24540   0.32796   0.34935   0.35365
     Eigenvalues ---    0.38137   0.59154   1.132911000.000001000.00000
     Eigenvalues --- 1000.000001000.000001000.000001000.000001000.00000
     Eigenvalues --- 1000.000001000.000001000.00000
 Eigenvectors required to have negative eigenvalues:
                          R1        R2        R3        R4        R5
         1              0.00003  -0.00345  -0.00001  -0.57157  -0.00034
                          R6        R7        R8        A1        A2
         1             -0.00018   0.00180   0.69561   0.00386   0.00184
                          A3        A4        A5        A6        A7
         1             -0.00570   0.16770   0.00774   0.00846   0.07743
                          A8        A9        A10       A11       D1
         1              0.10029  -0.16582  -0.00071  -0.09671  -0.00021
                          D2        D3        D4        D5        D6
         1              0.15644  -0.17215  -0.00006   0.15659  -0.17200
                          D7        D8        D9
         1              0.00011  -0.00001   0.00001
 QST in optimization variable space.
                        Tangent   TS vect  // Eig F  Eigenval
       1  R1           -0.00003   0.00003   0.05667  -0.01791
       2  R2            0.00345  -0.00345   0.00018   0.00965
       3  R3            0.00001  -0.00001  -0.00015   0.00971
       4  R4            0.57157  -0.57157   0.00013   0.01797
       5  R5            0.00034  -0.00034  -0.00436   0.06344
       6  R6            0.00018  -0.00018  -0.00078   0.08774
       7  R7           -0.00180   0.00180  -0.01817   0.10770
       8  R8           -0.69561   0.69561  -0.00748   0.15879
       9  A1           -0.00386   0.00386   0.00190   0.16000
      10  A2           -0.00184   0.00184  -0.01240   0.17074
      11  A3            0.00570  -0.00570   0.00004   0.22993
      12  A4           -0.16770   0.16770   0.01347   0.24540
      13  A5           -0.00774   0.00774  -0.00438   0.32796
      14  A6           -0.00846   0.00846  -0.00366   0.34935
      15  A7           -0.07743   0.07743  -0.00217   0.35365
      16  A8           -0.10029   0.10029   0.01450   0.38137
      17  A9            0.16582  -0.16582  -0.00870   0.59154
      18  A10           0.00071  -0.00071   0.00099   1.13291
      19  A11           0.09671  -0.09671   0.000001000.00000
      20  D1            0.00021  -0.00021   0.000001000.00000
      21  D2           -0.15644   0.15644   0.000001000.00000
      22  D3            0.17215  -0.17215   0.000001000.00000
      23  D4            0.00006  -0.00006   0.000001000.00000
      24  D5           -0.15659   0.15659   0.000001000.00000
      25  D6            0.17200  -0.17200   0.000001000.00000
      26  D7           -0.00011   0.00011   0.000001000.00000
      27  D8            0.00001  -0.00001   0.000001000.00000
      28  D9           -0.00001   0.00001   0.000001000.00000
 RFO step:  Lambda0=4.841663452D-02 Lambda=-5.92408445D-03.
 Linear search not attempted -- option 19 set.
 Maximum step size (   0.300) exceeded in Quadratic search.
    -- Step size scaled by   0.342
 Iteration  1 RMS(Cart)=  0.03507038 RMS(Int)=  0.00634629
 Iteration  2 RMS(Cart)=  0.00500670 RMS(Int)=  0.00087847
 Iteration  3 RMS(Cart)=  0.00001710 RMS(Int)=  0.00087833
 Iteration  4 RMS(Cart)=  0.00000001 RMS(Int)=  0.00087833
 Variable       Old X    -DE/DX   Delta X   Delta X   Delta X     New X
                                 (Linear)    (Quad)   (Total)
    R1        2.23754   0.00200   0.00000   0.00030   0.00030   2.23784
    R2        2.80990  -0.01026   0.00000  -0.00378  -0.00324   2.80666
    R3        2.73111   0.03026   0.00000   0.01318   0.01307   2.74418
    R4        3.08380  -0.05961   0.00000   0.12271   0.12305   3.20686
    R5        2.05635  -0.00699   0.00000  -0.00329  -0.00329   2.05307
    R6        2.05007  -0.00410   0.00000  -0.00192  -0.00192   2.04814
    R7        2.49457  -0.01693   0.00000  -0.00558  -0.00621   2.48835
    R8        2.68686   0.01900   0.00000  -0.23264  -0.23294   2.45392
    A1        2.26821   0.01873   0.00000   0.01147   0.01122   2.27942
    A2        2.00873  -0.01829   0.00000  -0.01319  -0.01344   1.99528
    A3        2.00625  -0.00044   0.00000   0.00173   0.00222   2.00848
    A4        1.58185  -0.00931   0.00000  -0.06863  -0.06731   1.51453
    A5        1.96592   0.00486   0.00000   0.00362   0.00148   1.96740
    A6        1.92484   0.00994   0.00000   0.00852   0.00638   1.93122
    A7        1.74861   0.00877   0.00000  -0.02119  -0.02193   1.72669
    A8        1.76837   0.00752   0.00000  -0.03134  -0.03190   1.73646
    A9        2.29110  -0.01815   0.00000   0.04068   0.03837   2.32947
   A10        1.99253  -0.00020   0.00000  -0.00150  -0.00254   1.98999
   A11        1.78848  -0.02658   0.00000   0.00326   0.00182   1.79030
    D1        3.14090  -0.00049   0.00000  -0.00120  -0.00128   3.13962
    D2       -1.37394   0.00553   0.00000  -0.05324  -0.05331  -1.42726
    D3        1.35508  -0.00590   0.00000   0.05768   0.05782   1.41290
    D4       -0.00018  -0.00021   0.00000   0.00183   0.00175   0.00157
    D5        1.76816   0.00581   0.00000  -0.05022  -0.05028   1.71789
    D6       -1.78600  -0.00563   0.00000   0.06071   0.06085  -1.72514
    D7       -3.14109   0.00010   0.00000  -0.00005  -0.00007  -3.14116
    D8        0.00007  -0.00012   0.00000  -0.00261  -0.00259  -0.00252
    D9        0.00011   0.00042   0.00000   0.00173   0.00172   0.00184
         Item               Value     Threshold  Converged?
 Maximum Force            0.059607     0.000450     NO 
 RMS     Force            0.016353     0.000300     NO 
 Maximum Displacement     0.141719     0.001800     NO 
 RMS     Displacement     0.038807     0.001200     NO 
 Predicted change in Energy= 1.182732D-02
 GradGradGradGradGradGradGradGradGradGradGradGradGradGradGradGradGradGrad

                          Input orientation:                          
 ---------------------------------------------------------------------
 Center     Atomic     Atomic              Coordinates (Angstroms)
 Number     Number      Type              X           Y           Z
 ---------------------------------------------------------------------
    1          6             0       -0.654532   -0.134561   -0.006189
    2          8             0       -1.466781   -0.996307   -0.009174
    3          6             0       -0.812150    1.342273   -0.007708
    4          1             0        0.882687    1.427201    0.002847
    5          1             0       -0.994981    1.743802   -1.000529
    6          1             0       -1.015571    1.706001    0.992797
    7          8             0        0.718591   -0.606978    0.004626
    8          8             0        1.616683    0.356000    0.008415
 ---------------------------------------------------------------------
                    Distance matrix (angstroms):
                    1          2          3          4          5
     1  C    0.000000
     2  O    1.184214   0.000000
     3  C    1.485222   2.428477   0.000000
     4  H    2.191398   3.375431   1.696996   0.000000
     5  H    2.152410   2.951877   1.086437   2.152356   0.000000
     6  H    2.125087   2.917191   1.083831   2.158961   1.993790
     7  O    1.452157   2.219823   2.478487   2.040788   3.077797
     8  O    2.323635   3.367015   2.621493   1.298558   3.124860
                    6          7          8
     6  H    0.000000
     7  O    3.055106   0.000000
     8  O    3.117735   1.316780   0.000000
 Stoichiometry    C2H3O3(2)
 Framework group  C1[X(C2H3O3)]
 Deg. of freedom    18
 Full point group                 C1      NOp   1
 Largest Abelian subgroup         C1      NOp   1
 Largest concise Abelian subgroup C1      NOp   1
                         Standard orientation:                         
 ---------------------------------------------------------------------
 Center     Atomic     Atomic              Coordinates (Angstroms)
 Number     Number      Type              X           Y           Z
 ---------------------------------------------------------------------
    1          6             0       -0.605298   -0.061580   -0.001576
    2          8             0       -1.582998   -0.729760   -0.001287
    3          6             0       -0.443557    1.414808    0.000694
    4          1             0        1.230285    1.135438    0.001132
    5          1             0       -0.541794    1.849284   -0.990227
    6          1             0       -0.558995    1.810438    1.003111
    7          8             0        0.635124   -0.816637    0.000004
    8          8             0        1.718328   -0.067919    0.000193
 ---------------------------------------------------------------------
 Rotational constants (GHZ):      9.5231641      4.8285954      3.2875011
 Standard basis: 6-311+G(3df,2p) (5D, 7F)
 There are   222 symmetry adapted basis functions of A   symmetry.
 Integral buffers will be    262144 words long.
 Raffenetti 2 integral format.
 Two-electron integral symmetry is turned on.
   222 basis functions,   323 primitive gaussians,   252 cartesian basis functions
    20 alpha electrons       19 beta electrons
       nuclear repulsion energy       171.9762879964 Hartrees.
 NAtoms=    8 NActive=    8 NUniq=    8 SFac= 1.00D+00 NAtFMM=   60 Big=F
 One-electron integrals computed using PRISM.
 NBasis=   222 RedAO= T  NBF=   222
 NBsUse=   222 1.00D-06 NBFU=   222
 Initial guess read from the read-write file:
 Initial guess orbital symmetries:
 Alpha Orbitals:
       Occupied  (A) (A) (A) (A) (A) (A) (A) (A) (A) (A) (A) (A)
                 (A) (A) (A) (A) (A) (A) (A) (A)
       Virtual   (A) (A) (A) (A) (A) (A) (A) (A) (A) (A) (A) (A)
                 (A) (A) (A) (A) (A) (A) (A) (A) (A) (A) (A) (A)
                 (A) (A) (A) (A) (A) (A) (A) (A) (A) (A) (A) (A)
                 (A) (A) (A) (A) (A) (A) (A) (A) (A) (A) (A) (A)
                 (A) (A) (A) (A) (A) (A) (A) (A) (A) (A) (A) (A)
                 (A) (A) (A) (A) (A) (A) (A) (A) (A) (A) (A) (A)
                 (A) (A) (A) (A) (A) (A) (A) (A) (A) (A) (A) (A)
                 (A) (A) (A) (A) (A) (A) (A) (A) (A) (A) (A) (A)
                 (A) (A) (A) (A) (A) (A) (A) (A) (A) (A) (A) (A)
                 (A) (A) (A) (A) (A) (A) (A) (A) (A) (A) (A) (A)
                 (A) (A) (A) (A) (A) (A) (A) (A) (A) (A) (A) (A)
                 (A) (A) (A) (A) (A) (A) (A) (A) (A) (A) (A) (A)
                 (A) (A) (A) (A) (A) (A) (A) (A) (A) (A) (A) (A)
                 (A) (A) (A) (A) (A) (A) (A) (A) (A) (A) (A) (A)
                 (A) (A) (A) (A) (A) (A) (A) (A) (A) (A) (A) (A)
                 (A) (A) (A) (A) (A) (A) (A) (A) (A) (A) (A) (A)
                 (A) (A) (A) (A) (A) (A) (A) (A) (A) (A)
 Beta  Orbitals:
       Occupied  (A) (A) (A) (A) (A) (A) (A) (A) (A) (A) (A) (A)
                 (A) (A) (A) (A) (A) (A) (A)
       Virtual   (A) (A) (A) (A) (A) (A) (A) (A) (A) (A) (A) (A)
                 (A) (A) (A) (A) (A) (A) (A) (A) (A) (A) (A) (A)
                 (A) (A) (A) (A) (A) (A) (A) (A) (A) (A) (A) (A)
                 (A) (A) (A) (A) (A) (A) (A) (A) (A) (A) (A) (A)
                 (A) (A) (A) (A) (A) (A) (A) (A) (A) (A) (A) (A)
                 (A) (A) (A) (A) (A) (A) (A) (A) (A) (A) (A) (A)
                 (A) (A) (A) (A) (A) (A) (A) (A) (A) (A) (A) (A)
                 (A) (A) (A) (A) (A) (A) (A) (A) (A) (A) (A) (A)
                 (A) (A) (A) (A) (A) (A) (A) (A) (A) (A) (A) (A)
                 (A) (A) (A) (A) (A) (A) (A) (A) (A) (A) (A) (A)
                 (A) (A) (A) (A) (A) (A) (A) (A) (A) (A) (A) (A)
                 (A) (A) (A) (A) (A) (A) (A) (A) (A) (A) (A) (A)
                 (A) (A) (A) (A) (A) (A) (A) (A) (A) (A) (A) (A)
                 (A) (A) (A) (A) (A) (A) (A) (A) (A) (A) (A) (A)
                 (A) (A) (A) (A) (A) (A) (A) (A) (A) (A) (A) (A)
                 (A) (A) (A) (A) (A) (A) (A) (A) (A) (A) (A) (A)
                 (A) (A) (A) (A) (A) (A) (A) (A) (A) (A) (A)
 <S**2> of initial guess= 0.7560
 Harris functional with IExCor=  402 diagonalized for initial guess.
 ExpMin= 4.38D-02 ExpMax= 8.59D+03 ExpMxC= 1.30D+03 IAcc=2 IRadAn=         4 AccDes= 0.00D+00
 HarFok:  IExCor= 402 AccDes= 0.00D+00 IRadAn=         4 IDoV=1
 ScaDFX=  1.000000  1.000000  1.000000  1.000000
 Requested convergence on RMS density matrix=1.00D-08 within1000 cycles.
 Requested convergence on MAX density matrix=1.00D-06.
 Requested convergence on             energy=1.00D-06.
 No special actions if energy rises.
 Rare condition: small coef for last iteration:  0.000D+00
 Rare condition: small coef for last iteration:  0.000D+00
 SCF Done:  E(UB+HF-LYP) =  -303.566084320     A.U. after   17 cycles
             Convg  =    0.8076D-08             -V/T =  2.0038
             S**2   =   0.7563
 Annihilation of the first spin contaminant:
 S**2 before annihilation     0.7563,   after     0.7500
 ***** Axes restored to original set *****
 -------------------------------------------------------------------
 Center     Atomic                   Forces (Hartrees/Bohr)
 Number     Number              X              Y              Z
 -------------------------------------------------------------------
    1          6          -0.055558227    0.047993639   -0.002430252
    2          8           0.013168627   -0.015216334    0.000454878
    3          6           0.082749952   -0.023509784    0.000133222
    4          1          -0.064858016    0.001737055   -0.000029151
    5          1          -0.012967891    0.006716131    0.012231926
    6          1          -0.013057534    0.009874828   -0.010689246
    7          8           0.037048389   -0.000178296    0.000346530
    8          8           0.013474701   -0.027417239   -0.000017906
 -------------------------------------------------------------------
 Cartesian Forces:  Max     0.082749952 RMS     0.029199175

 GradGradGradGradGradGradGradGradGradGradGradGradGradGradGradGradGradGrad
 Berny optimization.
 Internal  Forces:  Max     0.047086847 RMS     0.015696712
 Search for a saddle point.
 Step number   3 out of a maximum of 100
 All quantities printed in internal units (Hartrees-Bohrs-Radians)
 Update second derivatives using D2CorX and points  1  2  3
 LST/QST climbing along tangent vector
     Eigenvalues ---   -0.02255   0.00968   0.00971   0.01832   0.05993
     Eigenvalues ---    0.08705   0.10800   0.15800   0.16000   0.16906
     Eigenvalues ---    0.23000   0.24239   0.32749   0.34934   0.35364
     Eigenvalues ---    0.37758   0.59040   1.132911000.000001000.00000
     Eigenvalues --- 1000.000001000.000001000.000001000.000001000.00000
     Eigenvalues --- 1000.000001000.000001000.00000
 Eigenvectors required to have negative eigenvalues:
                          R1        R2        R3        R4        R5
         1              0.00023  -0.00947   0.00791  -0.60228  -0.00258
                          R6        R7        R8        A1        A2
         1             -0.00147   0.00107   0.67617   0.01434  -0.00392
                          A3        A4        A5        A6        A7
         1             -0.01042   0.14898   0.02235   0.02665   0.08362
                          A8        A9        A10       A11       D1
         1              0.10370  -0.15795  -0.00064  -0.10731  -0.00091
                          D2        D3        D4        D5        D6
         1              0.15167  -0.16731   0.00112   0.15370  -0.16528
                          D7        D8        D9
         1              0.00011  -0.00154   0.00094
 QST in optimization variable space.
                        Tangent   TS vect  // Eig F  Eigenval
       1  R1           -0.00023   0.00023   0.05096  -0.02255
       2  R2            0.00947  -0.00947   0.00005   0.00968
       3  R3           -0.00791   0.00791   0.00004   0.00971
       4  R4            0.60228  -0.60228  -0.00004   0.01832
       5  R5            0.00258  -0.00258  -0.00137   0.05993
       6  R6            0.00147  -0.00147  -0.00046   0.08705
       7  R7           -0.00107   0.00107  -0.01384   0.10800
       8  R8           -0.67617   0.67617  -0.00850   0.15800
       9  A1           -0.01434   0.01434  -0.00111   0.16000
      10  A2            0.00392  -0.00392  -0.01142   0.16906
      11  A3            0.01042  -0.01042   0.00087   0.23000
      12  A4           -0.14898   0.14898  -0.01620   0.24239
      13  A5           -0.02235   0.02235  -0.00654   0.32749
      14  A6           -0.02665   0.02665  -0.00340   0.34934
      15  A7           -0.08362   0.08362  -0.00218   0.35364
      16  A8           -0.10370   0.10370   0.01666   0.37758
      17  A9            0.15795  -0.15795  -0.00878   0.59040
      18  A10           0.00064  -0.00064   0.00100   1.13291
      19  A11           0.10731  -0.10731   0.000001000.00000
      20  D1            0.00091  -0.00091   0.000001000.00000
      21  D2           -0.15167   0.15167   0.000001000.00000
      22  D3            0.16731  -0.16731   0.000001000.00000
      23  D4           -0.00112   0.00112   0.000001000.00000
      24  D5           -0.15370   0.15370   0.000001000.00000
      25  D6            0.16528  -0.16528   0.000001000.00000
      26  D7           -0.00011   0.00011   0.000001000.00000
      27  D8            0.00154  -0.00154   0.000001000.00000
      28  D9           -0.00094   0.00094   0.000001000.00000
 RFO step:  Lambda0=4.091695252D-02 Lambda=-5.02024537D-03.
 Linear search not attempted -- option 19 set.
 Maximum step size (   0.300) exceeded in Quadratic search.
    -- Step size scaled by   0.365
 Iteration  1 RMS(Cart)=  0.03454447 RMS(Int)=  0.00517436
 Iteration  2 RMS(Cart)=  0.00411988 RMS(Int)=  0.00075286
 Iteration  3 RMS(Cart)=  0.00001301 RMS(Int)=  0.00075277
 Iteration  4 RMS(Cart)=  0.00000000 RMS(Int)=  0.00075277
 Variable       Old X    -DE/DX   Delta X   Delta X   Delta X     New X
                                 (Linear)    (Quad)   (Total)
    R1        2.23784   0.00204   0.00000   0.00027   0.00027   2.23811
    R2        2.80666  -0.01445   0.00000  -0.00535  -0.00488   2.80178
    R3        2.74418   0.03700   0.00000   0.01600   0.01590   2.76008
    R4        3.20686  -0.04709   0.00000   0.14687   0.14713   3.35399
    R5        2.05307  -0.00651   0.00000  -0.00262  -0.00262   2.05045
    R6        2.04814  -0.00410   0.00000  -0.00170  -0.00170   2.04644
    R7        2.48835  -0.01710   0.00000  -0.00577  -0.00632   2.48204
    R8        2.45392   0.01704   0.00000  -0.22653  -0.22679   2.22713
    A1        2.27942   0.02309   0.00000   0.01330   0.01304   2.29246
    A2        1.99528  -0.02169   0.00000  -0.01561  -0.01587   1.97941
    A3        2.00848  -0.00140   0.00000   0.00231   0.00283   2.01130
    A4        1.51453  -0.00753   0.00000  -0.06040  -0.05917   1.45536
    A5        1.96740   0.00597   0.00000  -0.00045  -0.00229   1.96511
    A6        1.93122   0.01013   0.00000   0.00270   0.00084   1.93207
    A7        1.72669   0.00843   0.00000  -0.02066  -0.02135   1.70533
    A8        1.73646   0.00788   0.00000  -0.02904  -0.02959   1.70688
    A9        2.32947  -0.01902   0.00000   0.03358   0.03163   2.36110
   A10        1.98999  -0.00084   0.00000  -0.00140  -0.00216   1.98783
   A11        1.79030  -0.02501   0.00000   0.00803   0.00691   1.79721
    D1        3.13962  -0.00033   0.00000   0.00041   0.00037   3.13999
    D2       -1.42726   0.00571   0.00000  -0.04706  -0.04698  -1.47424
    D3        1.41290  -0.00596   0.00000   0.05394   0.05393   1.46683
    D4        0.00157  -0.00019   0.00000  -0.00033  -0.00037   0.00120
    D5        1.71789   0.00585   0.00000  -0.04780  -0.04772   1.67017
    D6       -1.72514  -0.00582   0.00000   0.05321   0.05319  -1.67195
    D7       -3.14116   0.00003   0.00000  -0.00018  -0.00015  -3.14131
    D8       -0.00252   0.00000   0.00000   0.00049   0.00051  -0.00202
    D9        0.00184   0.00020   0.00000  -0.00037  -0.00033   0.00150
         Item               Value     Threshold  Converged?
 Maximum Force            0.047087     0.000450     NO 
 RMS     Force            0.015697     0.000300     NO 
 Maximum Displacement     0.129985     0.001800     NO 
 RMS     Displacement     0.037457     0.001200     NO 
 Predicted change in Energy= 9.961985D-03
 GradGradGradGradGradGradGradGradGradGradGradGradGradGradGradGradGradGrad

                          Input orientation:                          
 ---------------------------------------------------------------------
 Center     Atomic     Atomic              Coordinates (Angstroms)
 Number     Number      Type              X           Y           Z
 ---------------------------------------------------------------------
    1          6             0       -0.668287   -0.125779   -0.006753
    2          8             0       -1.455037   -1.011054   -0.010774
    3          6             0       -0.849571    1.345735   -0.008103
    4          1             0        0.925196    1.358416    0.004298
    5          1             0       -0.991017    1.747394   -1.006101
    6          1             0       -1.006149    1.713039    0.998530
    7          8             0        0.719044   -0.582351    0.004558
    8          8             0        1.599768    0.392032    0.009431
 ---------------------------------------------------------------------
                    Distance matrix (angstroms):
                    1          2          3          4          5
     1  C    0.000000
     2  O    1.184358   0.000000
     3  C    1.482639   2.433321   0.000000
     4  H    2.177646   3.358589   1.774856   0.000000
     5  H    2.147470   2.969011   1.085052   2.200927   0.000000
     6  H    2.122734   2.939537   1.082931   2.200988   2.004983
     7  O    1.460574   2.215999   2.485605   1.951685   3.061610
     8  O    2.326470   3.361680   2.628520   1.178547   3.095235
                    6          7          8
     6  H    0.000000
     7  O    3.038600   0.000000
     8  O    3.084507   1.313438   0.000000
 Stoichiometry    C2H3O3(2)
 Framework group  C1[X(C2H3O3)]
 Deg. of freedom    18
 Full point group                 C1      NOp   1
 Largest Abelian subgroup         C1      NOp   1
 Largest concise Abelian subgroup C1      NOp   1
                         Standard orientation:                         
 ---------------------------------------------------------------------
 Center     Atomic     Atomic              Coordinates (Angstroms)
 Number     Number      Type              X           Y           Z
 ---------------------------------------------------------------------
    1          6             0       -0.612637   -0.051254   -0.001268
    2          8             0       -1.581686   -0.732172   -0.001022
    3          6             0       -0.451121    1.422560    0.000539
    4          1             0        1.279159    1.027284    0.000741
    5          1             0       -0.502921    1.848803   -0.995941
    6          1             0       -0.512709    1.813143    1.008701
    7          8             0        0.632792   -0.814260   -0.000097
    8          8             0        1.713771   -0.068200   -0.000022
 ---------------------------------------------------------------------
 Rotational constants (GHZ):      9.5133136      4.8342503      3.2899191
 Standard basis: 6-311+G(3df,2p) (5D, 7F)
 There are   222 symmetry adapted basis functions of A   symmetry.
 Integral buffers will be    262144 words long.
 Raffenetti 2 integral format.
 Two-electron integral symmetry is turned on.
   222 basis functions,   323 primitive gaussians,   252 cartesian basis functions
    20 alpha electrons       19 beta electrons
       nuclear repulsion energy       172.2963378582 Hartrees.
 NAtoms=    8 NActive=    8 NUniq=    8 SFac= 1.00D+00 NAtFMM=   60 Big=F
 One-electron integrals computed using PRISM.
 NBasis=   222 RedAO= T  NBF=   222
 NBsUse=   222 1.00D-06 NBFU=   222
 Initial guess read from the read-write file:
 Initial guess orbital symmetries:
 Alpha Orbitals:
       Occupied  (A) (A) (A) (A) (A) (A) (A) (A) (A) (A) (A) (A)
                 (A) (A) (A) (A) (A) (A) (A) (A)
       Virtual   (A) (A) (A) (A) (A) (A) (A) (A) (A) (A) (A) (A)
                 (A) (A) (A) (A) (A) (A) (A) (A) (A) (A) (A) (A)
                 (A) (A) (A) (A) (A) (A) (A) (A) (A) (A) (A) (A)
                 (A) (A) (A) (A) (A) (A) (A) (A) (A) (A) (A) (A)
                 (A) (A) (A) (A) (A) (A) (A) (A) (A) (A) (A) (A)
                 (A) (A) (A) (A) (A) (A) (A) (A) (A) (A) (A) (A)
                 (A) (A) (A) (A) (A) (A) (A) (A) (A) (A) (A) (A)
                 (A) (A) (A) (A) (A) (A) (A) (A) (A) (A) (A) (A)
                 (A) (A) (A) (A) (A) (A) (A) (A) (A) (A) (A) (A)
                 (A) (A) (A) (A) (A) (A) (A) (A) (A) (A) (A) (A)
                 (A) (A) (A) (A) (A) (A) (A) (A) (A) (A) (A) (A)
                 (A) (A) (A) (A) (A) (A) (A) (A) (A) (A) (A) (A)
                 (A) (A) (A) (A) (A) (A) (A) (A) (A) (A) (A) (A)
                 (A) (A) (A) (A) (A) (A) (A) (A) (A) (A) (A) (A)
                 (A) (A) (A) (A) (A) (A) (A) (A) (A) (A) (A) (A)
                 (A) (A) (A) (A) (A) (A) (A) (A) (A) (A) (A) (A)
                 (A) (A) (A) (A) (A) (A) (A) (A) (A) (A)
 Beta  Orbitals:
       Occupied  (A) (A) (A) (A) (A) (A) (A) (A) (A) (A) (A) (A)
                 (A) (A) (A) (A) (A) (A) (A)
       Virtual   (A) (A) (A) (A) (A) (A) (A) (A) (A) (A) (A) (A)
                 (A) (A) (A) (A) (A) (A) (A) (A) (A) (A) (A) (A)
                 (A) (A) (A) (A) (A) (A) (A) (A) (A) (A) (A) (A)
                 (A) (A) (A) (A) (A) (A) (A) (A) (A) (A) (A) (A)
                 (A) (A) (A) (A) (A) (A) (A) (A) (A) (A) (A) (A)
                 (A) (A) (A) (A) (A) (A) (A) (A) (A) (A) (A) (A)
                 (A) (A) (A) (A) (A) (A) (A) (A) (A) (A) (A) (A)
                 (A) (A) (A) (A) (A) (A) (A) (A) (A) (A) (A) (A)
                 (A) (A) (A) (A) (A) (A) (A) (A) (A) (A) (A) (A)
                 (A) (A) (A) (A) (A) (A) (A) (A) (A) (A) (A) (A)
                 (A) (A) (A) (A) (A) (A) (A) (A) (A) (A) (A) (A)
                 (A) (A) (A) (A) (A) (A) (A) (A) (A) (A) (A) (A)
                 (A) (A) (A) (A) (A) (A) (A) (A) (A) (A) (A) (A)
                 (A) (A) (A) (A) (A) (A) (A) (A) (A) (A) (A) (A)
                 (A) (A) (A) (A) (A) (A) (A) (A) (A) (A) (A) (A)
                 (A) (A) (A) (A) (A) (A) (A) (A) (A) (A) (A) (A)
                 (A) (A) (A) (A) (A) (A) (A) (A) (A) (A) (A)
 <S**2> of initial guess= 0.7563
 Harris functional with IExCor=  402 diagonalized for initial guess.
 ExpMin= 4.38D-02 ExpMax= 8.59D+03 ExpMxC= 1.30D+03 IAcc=2 IRadAn=         4 AccDes= 0.00D+00
 HarFok:  IExCor= 402 AccDes= 0.00D+00 IRadAn=         4 IDoV=1
 ScaDFX=  1.000000  1.000000  1.000000  1.000000
 Requested convergence on RMS density matrix=1.00D-08 within1000 cycles.
 Requested convergence on MAX density matrix=1.00D-06.
 Requested convergence on             energy=1.00D-06.
 No special actions if energy rises.
 Rare condition: small coef for last iteration:  0.000D+00
 Rare condition: small coef for last iteration:  0.000D+00
 EnCoef did   100 forward-backward iterations
 EnCoef did   100 forward-backward iterations
 Rare condition: small coef for last iteration: -0.227D-15
 EnCoef did   100 forward-backward iterations
 EnCoef did   100 forward-backward iterations
 Rare condition: small coef for last iteration:  0.000D+00
 EnCoef did   100 forward-backward iterations
 EnCoef did   100 forward-backward iterations
 Rare condition: small coef for last iteration:  0.210D-15
 EnCoef did   100 forward-backward iterations
 EnCoef did   100 forward-backward iterations
 Rare condition: small coef for last iteration:  0.000D+00
 EnCoef did     5 forward-backward iterations
 Restarting incremental Fock formation.
 Rare condition: small coef for last iteration:  0.333D-15
 Matrix for removal  4 Erem= -303.502673370220     Crem= 0.000D+00
 EnCoef did   100 forward-backward iterations
 Rare condition: small coef for last iteration:  0.000D+00
 Matrix for removal 11 Erem= -303.540631621686     Crem= 0.000D+00
 Matrix for removal 12 Erem= -303.543935308749     Crem= 0.000D+00
 Matrix for removal  9 Erem= -303.546249290309     Crem= 0.000D+00
 SCF Done:  E(UB+HF-LYP) =  -303.599938782     A.U. after   31 cycles
             Convg  =    0.2677D-08             -V/T =  2.0035
             S**2   =   0.7570
 Annihilation of the first spin contaminant:
 S**2 before annihilation     0.7570,   after     0.7500
 ***** Axes restored to original set *****
 -------------------------------------------------------------------
 Center     Atomic                   Forces (Hartrees/Bohr)
 Number     Number              X              Y              Z
 -------------------------------------------------------------------
    1          6           0.051870559   -0.036116429   -0.001294570
    2          8          -0.021187215    0.008608673   -0.000004244
[...]
                     A                      A                      A
 Frequencies --   581.0601               681.5869               820.3327
 Red. masses --     7.0257                 2.2493                 6.5617
 Frc consts  --     1.3976                 0.6157                 2.6016
 IR Inten    --     4.8099                 7.4353                58.8709
 Atom AN      X      Y      Z        X      Y      Z        X      Y      Z
   1   6     0.17  -0.12   0.00    -0.08   0.01   0.00     0.15  -0.05   0.00
   2   8     0.36   0.13   0.00    -0.06   0.08   0.00     0.13  -0.12   0.00
   3   6     0.10  -0.26   0.00     0.26   0.01   0.00    -0.04   0.44   0.00
   4   1    -0.40   0.11   0.00     0.16  -0.04   0.00     0.26  -0.03   0.00
   5   1    -0.42  -0.14   0.03    -0.63   0.18   0.07     0.22   0.45  -0.04
   6   1    -0.42  -0.15  -0.03    -0.63   0.18  -0.07     0.22   0.45   0.04
   7   8    -0.12   0.07   0.00    -0.06  -0.12   0.00    -0.08  -0.36   0.00
   8   8    -0.36   0.10   0.00     0.05   0.00   0.00    -0.17   0.12   0.00
                    10                     11                     12
                     A                      A                      A
 Frequencies --   972.3293              1024.2170              1240.2140
 Red. masses --    12.4720                 1.8336                 7.9526
 Frc consts  --     6.9472                 1.1333                 7.2070
 IR Inten    --     3.1435                 4.0041               258.1887
 Atom AN      X      Y      Z        X      Y      Z        X      Y      Z
   1   6    -0.07   0.20   0.00     0.00   0.00   0.22     0.39   0.55   0.00
   2   8    -0.23   0.03   0.00     0.00   0.00  -0.04    -0.09  -0.02   0.00
   3   6     0.01  -0.21   0.00     0.00   0.00  -0.16    -0.04  -0.20   0.00
   4   1     0.03   0.13   0.00     0.00   0.00   0.06     0.13  -0.07   0.00
   5   1    -0.04  -0.31   0.05     0.02  -0.65   0.21     0.06  -0.42   0.09
   6   1    -0.04  -0.30  -0.05    -0.02   0.65   0.21     0.06  -0.42  -0.09
   7   8     0.62  -0.27   0.00     0.00   0.00  -0.03    -0.25  -0.17   0.00
   8   8    -0.34   0.27   0.00     0.00   0.00   0.00     0.05  -0.01   0.00
                    13                     14                     15
                     A                      A                      A
 Frequencies --  1415.8210              1437.3473              1796.6826
 Red. masses --     1.1720                 1.1390                13.0047
 Frc consts  --     1.3842                 1.3865                24.7339
 IR Inten    --    26.6424                51.0320               235.7364
 Atom AN      X      Y      Z        X      Y      Z        X      Y      Z
   1   6    -0.02  -0.02   0.00     0.00   0.01   0.00     0.65  -0.50   0.00
   2   8     0.02  -0.01   0.00     0.01  -0.01   0.00    -0.46   0.30   0.00
   3   6     0.01   0.12   0.00     0.00   0.02   0.00    -0.01   0.06   0.00
   4   1    -0.19   0.07   0.00     0.91  -0.36   0.00     0.03  -0.03   0.00
   5   1    -0.11  -0.55   0.39    -0.03  -0.11   0.08     0.01  -0.06   0.08
   6   1    -0.11  -0.55  -0.39    -0.03  -0.11  -0.08     0.01  -0.06  -0.08
   7   8     0.00   0.00   0.00     0.00   0.06   0.00     0.01   0.05   0.00
   8   8     0.01   0.01   0.00    -0.06  -0.03   0.00    -0.03  -0.01   0.00
                    16                     17                     18
                     A                      A                      A
 Frequencies --  3143.3650              3250.2560              3521.5541
 Red. masses --     1.0500                 1.1179                 1.0680
 Frc consts  --     6.1126                 6.9579                 7.8036
 IR Inten    --     2.6812                 1.7588                41.6637
 Atom AN      X      Y      Z        X      Y      Z        X      Y      Z
   1   6     0.00   0.00   0.00     0.00   0.00   0.00     0.00   0.00   0.00
   2   8     0.00   0.00   0.00     0.00   0.00   0.00     0.00   0.00   0.00
   3   6    -0.02  -0.06   0.00     0.00   0.00   0.10     0.00   0.00   0.00
   4   1     0.00   0.01   0.00     0.00   0.00   0.00     0.32   0.94   0.00
   5   1     0.12   0.33   0.61    -0.13  -0.34  -0.60     0.00   0.00   0.00
   6   1     0.12   0.33  -0.61     0.13   0.34  -0.60     0.00   0.00   0.00
   7   8     0.00   0.00   0.00     0.00   0.00   0.00     0.00   0.00   0.00
   8   8     0.00   0.00   0.00     0.00   0.00   0.00    -0.02  -0.06   0.00

 -------------------
 - Thermochemistry -
 -------------------
 Temperature   298.150 Kelvin.  Pressure   1.00000 Atm.
 Atom  1 has atomic number  6 and mass  12.00000
 Atom  2 has atomic number  8 and mass  15.99491
 Atom  3 has atomic number  6 and mass  12.00000
 Atom  4 has atomic number  1 and mass   1.00783
 Atom  5 has atomic number  1 and mass   1.00783
 Atom  6 has atomic number  1 and mass   1.00783
 Atom  7 has atomic number  8 and mass  15.99491
 Atom  8 has atomic number  8 and mass  15.99491
 Molecular mass:    75.00822 amu.
 Principal axes and moments of inertia in atomic units:
                           1         2         3
     EIGENVALUES --   181.69265 393.46107 562.74017
           X            0.99975   0.02218   0.00000
           Y           -0.02218   0.99975   0.00002
           Z            0.00001  -0.00002   1.00000
 This molecule is an asymmetric top.
 Rotational symmetry number  1.
 Rotational temperatures (Kelvin)      0.47671     0.22013     0.15391
 Rotational constants (GHZ):           9.93293     4.58684     3.20706
    1 imaginary frequencies ignored.
 Zero-point vibrational energy     128924.2 (Joules/Mol)
                                   30.81361 (Kcal/Mol)
 Warning -- explicit consideration of   6 degrees of freedom as
           vibrations may cause significant error
 Vibrational temperatures:    126.26   419.21   441.24   627.98   787.60
          (Kelvin)            836.01   980.65  1180.27  1398.96  1473.62
                             1784.39  2037.05  2068.02  2585.02  4522.60
                             4676.39  5066.72
 
 Zero-point correction=                           0.049105 (Hartree/Particle)
 Thermal correction to Energy=                    0.054473
 Thermal correction to Enthalpy=                  0.055417
 Thermal correction to Gibbs Free Energy=         0.019950
 Sum of electronic and zero-point Energies=           -303.591520
 Sum of electronic and thermal Energies=              -303.586152
 Sum of electronic and thermal Enthalpies=            -303.585208
 Sum of electronic and thermal Free Energies=         -303.620675
 
                     E (Thermal)             CV                S
                      KCal/Mol        Cal/Mol-Kelvin    Cal/Mol-Kelvin
 Total                   34.182             17.520             74.646
 Electronic               0.000              0.000              1.377
 Translational            0.889              2.981             38.861
 Rotational               0.889              2.981             25.201
 Vibrational             32.405             11.559              9.206
 Vibration  1             0.601              1.958              3.710
 Vibration  2             0.687              1.690              1.466
 Vibration  3             0.697              1.661              1.380
 Vibration  4             0.797              1.391              0.838
 Vibration  5             0.903              1.145              0.550
 Vibration  6             0.938              1.072              0.483
                       Q            Log10(Q)             Ln(Q)
 Total Bot       0.666176D-09         -9.176411        -21.129467
 Total V=0       0.257097D+14         13.410097         30.877890
 Vib (Bot)       0.181686D-21        -21.740679        -50.059764
 Vib (Bot)  1    0.234386D+01          0.369932          0.851801
 Vib (Bot)  2    0.655852D+00         -0.183194         -0.421820
 Vib (Bot)  3    0.617776D+00         -0.209169         -0.481630
 Vib (Bot)  4    0.397180D+00         -0.401013         -0.923366
 Vib (Bot)  5    0.287395D+00         -0.541521         -1.246898
 Vib (Bot)  6    0.261970D+00         -0.581748         -1.339525
 Vib (V=0)       0.701179D+01          0.845829          1.947593
 Vib (V=0)  1    0.289660D+01          0.461889          1.063538
 Vib (V=0)  2    0.132471D+01          0.122120          0.281191
 Vib (V=0)  3    0.129476D+01          0.112190          0.258327
 Vib (V=0)  4    0.113855D+01          0.056354          0.129759
 Vib (V=0)  5    0.107671D+01          0.032099          0.073911
 Vib (V=0)  6    0.106447D+01          0.027134          0.062479
 Electronic      0.200000D+01          0.301030          0.693147
 Translational   0.255340D+08          7.407118         17.055521
 Rotational      0.717992D+05          4.856120         11.181629
 ***** Axes restored to original set *****
 -------------------------------------------------------------------
 Center     Atomic                   Forces (Hartrees/Bohr)
 Number     Number              X              Y              Z
 -------------------------------------------------------------------
    1          6           0.000058076    0.000002316    0.000006569
    2          8          -0.000029995   -0.000014064   -0.000010249
    3          6          -0.000010655    0.000020409   -0.000000033
    4          1          -0.000028820    0.000033390   -0.000004840
    5          1           0.000014243   -0.000013235   -0.000013149
    6          1           0.000021074   -0.000015207    0.000014678
    7          8          -0.000140679   -0.000095492    0.000007934
    8          8           0.000116755    0.000081883   -0.000000909
 -------------------------------------------------------------------
 Cartesian Forces:  Max     0.000140679 RMS     0.000049106

 GradGradGradGradGradGradGradGradGradGradGradGradGradGradGradGradGradGrad
 Berny optimization.
 Internal  Forces:  Max     0.000144358 RMS     0.000031767
 Search for a saddle point.
 Step number   1 out of a maximum of   2
 All quantities printed in internal units (Hartrees-Bohrs-Radians)
 Swaping is turned off.
 Second derivative matrix not updated -- analytic derivatives used.
     Eigenvalues ---   -0.00472   0.00087   0.01050   0.01253   0.01577
     Eigenvalues ---    0.04269   0.09695   0.10080   0.13000   0.19630
     Eigenvalues ---    0.24043   0.26064   0.29958   0.34196   0.36122
     Eigenvalues ---    0.36187   0.45068   0.882591000.000001000.00000
     Eigenvalues --- 1000.000001000.000001000.000001000.000001000.00000
     Eigenvalues --- 1000.000001000.000001000.00000
 Eigenvectors required to have negative eigenvalues:
                          R1        R2        R3        R4        R5
         1              0.00001   0.00003  -0.00008  -0.00145   0.00125
                          R6        R7        R8        A1        A2
         1             -0.00124   0.00001   0.00005  -0.00009   0.00004
                          A3        A4        A5        A6        A7
         1              0.00005   0.00007   0.02161  -0.02165  -0.18581
                          A8        A9        A10       A11       D1
         1              0.18587  -0.00003   0.00013   0.00000  -0.19592
                          D2        D3        D4        D5        D6
         1             -0.40923  -0.40940  -0.18708  -0.40040  -0.40056
                          D7        D8        D9
         1             -0.01943  -0.02788   0.44677
 Angle between quadratic step and forces=  75.22 degrees.
 Linear search not attempted -- option 19 set.
 Iteration  1 RMS(Cart)=  0.00062122 RMS(Int)=  0.00000078
 Iteration  2 RMS(Cart)=  0.00000061 RMS(Int)=  0.00000024
 Variable       Old X    -DE/DX   Delta X   Delta X   Delta X     New X
                                 (Linear)    (Quad)   (Total)
    R1        2.26578   0.00003   0.00000   0.00005   0.00005   2.26582
    R2        2.79750   0.00000   0.00000   0.00000   0.00000   2.79749
    R3        2.56177  -0.00004   0.00000  -0.00014  -0.00014   2.56163
    R4        3.83241  -0.00001   0.00000  -0.00116  -0.00116   3.83125
    R5        2.04261   0.00000   0.00000  -0.00001  -0.00001   2.04259
    R6        2.04260   0.00000   0.00000  -0.00001  -0.00001   2.04259
    R7        2.73024   0.00014   0.00000   0.00062   0.00062   2.73086
    R8        1.85013   0.00003   0.00000   0.00012   0.00012   1.85025
    A1        2.13974  -0.00001   0.00000   0.00002   0.00002   2.13977
    A2        2.06442   0.00001   0.00000   0.00006   0.00006   2.06448
    A3        2.07903   0.00000   0.00000  -0.00009  -0.00009   2.07894
    A4        1.37538   0.00004   0.00000   0.00022   0.00022   1.37561
    A5        2.06469  -0.00001   0.00000   0.00004   0.00004   2.06473
    A6        2.06487  -0.00002   0.00000  -0.00014  -0.00014   2.06473
    A7        1.85583  -0.00002   0.00000  -0.00053  -0.00053   1.85530
    A8        1.85576  -0.00002   0.00000  -0.00047  -0.00047   1.85529
    A9        2.06699   0.00003   0.00000   0.00043   0.00043   2.06742
   A10        2.01292  -0.00001   0.00000  -0.00022  -0.00022   2.01269
   A11        1.80329  -0.00001   0.00000  -0.00022  -0.00022   1.80307
    D1       -3.14129   0.00001   0.00000  -0.00031  -0.00031   3.14159
    D2       -1.34972   0.00000   0.00000  -0.00080  -0.00080  -1.35052
    D3        1.35043   0.00001   0.00000   0.00010   0.00010   1.35053
    D4        0.00001   0.00001   0.00000  -0.00001  -0.00001   0.00000
    D5        1.79158   0.00000   0.00000  -0.00050  -0.00050   1.79108
    D6       -1.79146   0.00000   0.00000   0.00040   0.00040  -1.79106
    D7       -3.14052  -0.00001   0.00000  -0.00108  -0.00108   3.14158
    D8        0.00135   0.00000   0.00000  -0.00136  -0.00136  -0.00002
    D9       -0.00274   0.00000   0.00000   0.00277   0.00277   0.00003
         Item               Value     Threshold  Converged?
 Maximum Force            0.000144     0.000450     YES
 RMS     Force            0.000032     0.000300     YES
 Maximum Displacement     0.001921     0.001800     NO 
 RMS     Displacement     0.000621     0.001200     YES
 Predicted change in Energy=-8.158932D-08
 GradGradGradGradGradGradGradGradGradGradGradGradGradGradGradGradGradGrad

 1\1\GINC-COMP09\Freq\UB3LYP\6-311+G(3df,2p)\C2H3O3(2)\CHMDRGL\22-Oct-2
 005\0\\#N GEOM=ALLCHECK GUESS=READ SCRF=CHECK GENCHK UB3LYP/6-311+G(3D
 F,2P) FREQ\\acetyl peroxide\\0,2\C,-0.5301924751,-0.2207140716,-0.0052
 967918\O,-1.4151612113,-1.0296053277,-0.0162028478\C,-0.7829481039,1.2
 379085791,0.0003771856\H,1.2444484533,1.1895112594,0.0148696473\H,-1.0
 690306832,1.7119946417,-0.9279257669\H,-1.0824494004,1.7026153887,0.92
 91868581\O,0.7493083554,-0.66855401,0.0017134453\O,1.764087244,0.35974
 82958,0.0161627649\\Version=x86-Linux-G03RevB.05\State=2-A\HF=-303.640
 6248\S2=0.75412\S2-1=0.\S2A=0.750012\RMSD=5.957e-09\RMSF=4.911e-05\Dip
 ole=-0.1411219,1.5071696,0.0060541\DipoleDeriv=1.8695007,-0.0179612,0.
 0118819,-0.0859358,0.9439276,0.0025893,0.0111431,0.0031689,0.2821473,-
 1.0202197,-0.1924499,-0.006266,-0.4093621,-0.8402441,-0.0056959,-0.007
 3833,-0.004138,-0.331596,-0.2608734,0.0046159,-0.0023357,-0.0064598,-0
 .1790158,-0.0013345,-0.0022412,-0.0011307,0.0711305,0.3074762,0.060401
 4,0.0001439,0.0098871,0.1896002,-0.0002197,-0.0000761,0.0001052,0.2730
 316,0.1266764,0.0598805,-0.0203378,0.0168245,0.0826227,-0.0149241,-0.0
 091256,-0.0010084,0.0423694,0.1262003,0.0596687,0.0221498,0.0165054,0.
 0824869,0.0155853,0.0105023,0.0022665,0.043009,-0.8461733,-0.0473549,-
 0.0058598,0.6340035,-0.0721292,0.0053658,-0.0016348,0.0000211,-0.12178
 5,-0.3025872,0.0731994,0.0006237,-0.1754627,-0.2072483,-0.0013663,-0.0
 011843,0.0007154,-0.2583067\Polar=48.7997247,4.0938583,44.5911726,0.18
 32222,0.1192294,27.940416\PG=C01 [X(C2H3O3)]\NImag=1\\0.67249980,0.219
 66063,0.78065041,0.00465532,0.00471656,0.21144323,-0.40949363,-0.32463
 179,-0.00426176,0.51197907,-0.32937572,-0.42071457,-0.00432708,0.38247
 954,0.43522445,-0.00427746,-0.00428462,-0.07171447,0.00563950,0.005008
 58,0.02897466,-0.05943031,0.04423337,0.00054251,0.00607158,-0.03024754
 ,-0.00029262,0.15321879,0.04117719,-0.18861449,-0.00014700,-0.02298922
 ,-0.05043449,-0.00056188,-0.13494515,0.45900257,0.00052835,-0.00011428
 ,-0.10266976,-0.00025474,-0.00061734,0.02426614,-0.00387022,-0.0016319
 0,0.59562248,0.01193813,-0.01549591,-0.00002782,-0.00551555,0.00473459
 ,-0.00001334,0.00689112,0.00199046,0.00007717,0.16408410,-0.00481318,0
 .00542304,-0.00001762,0.00368028,-0.00144672,0.00001983,-0.00828696,-0
 .00100228,-0.00004645,-0.16246956,0.35090032,0.00002515,-0.00011676,0.
 00485440,-0.00001623,0.00003564,-0.00075313,0.00004987,0.00002622,-0.0
 0319647,0.00087324,-0.00003483,0.00171031,0.00436437,-0.00168782,-0.00
 540957,-0.00076972,0.00169988,-0.00059337,-0.03963986,0.05034352,-0.07
 676120,-0.00135510,0.00102518,-0.00183337,0.03205238,0.01083013,-0.006
 89783,0.02560425,-0.00121139,0.00012911,-0.00388789,0.04268002,-0.1012
 1542,0.10928904,0.00003137,0.00015505,0.00019488,-0.04991312,0.1021877
 7,0.00038143,-0.00128919,0.00641564,-0.00053647,-0.00140328,-0.0006052
 2,-0.06637592,0.11038317,-0.26861163,0.00009356,-0.00011022,-0.0002632
 2,0.07357941,-0.11822855,0.27769923,0.00428731,-0.00177123,0.00536118,
 -0.00078338,0.00167576,0.00060842,-0.04176350,0.05113025,0.08056631,-0
 .00137846,0.00100288,0.00182715,0.00692831,-0.00262056,-0.00802765,0.0
 3423671,0.01119824,-0.00664296,-0.02557294,-0.00127267,0.00007063,0.00
 387505,0.04355598,-0.09902265,-0.10696960,0.00003567,0.00015543,-0.000
 19000,-0.00286546,0.00934932,0.01132626,-0.05083810,0.09982446,-0.0002
 9992,0.00112760,0.00624185,0.00052204,0.00143507,-0.00053471,0.0701067
 0,-0.10795130,-0.26869116,-0.00010929,0.00012941,-0.00024010,0.0082919
 6,-0.01113640,-0.01330020,-0.07762239,0.11571905,0.27788426,-0.1865208
 3,0.12073567,-0.00041354,-0.09196676,-0.03662250,-0.00097396,-0.015031
 38,0.01349121,-0.00020183,0.00329910,0.00817259,0.00011831,-0.00140772
 ,0.00080573,0.00078397,-0.00137181,0.00078414,-0.00077441,0.42115679,0
 .03768000,-0.15610562,-0.00040329,-0.02676958,0.03034881,-0.00008389,0
 .02588108,-0.01987042,-0.00003231,-0.03611044,-0.03844524,-0.00053225,
 0.00255128,-0.00398142,-0.00117936,0.00255676,-0.00401644,0.00119240,0
 .00774886,0.34279268,-0.00089219,0.00024381,-0.04347175,-0.00091094,-0
 .00016465,0.01305224,-0.00014734,-0.00011519,0.02234111,-0.00007184,-0
 .00009793,-0.00330543,0.00201166,-0.00200590,-0.00158906,-0.00197998,0
 .00199102,-0.00159558,0.00322751,0.00195847,0.01540612,-0.03764484,-0.
 04104292,-0.00044632,-0.00952160,0.00565599,-0.00009716,-0.01031644,-0
 .00019826,-0.00008383,-0.17796334,0.16168877,-0.00104413,-0.00017267,-
 0.00060218,0.00010166,-0.00015518,-0.00059781,-0.00011468,-0.12815739,
 -0.01353797,-0.00123688,0.36393146,0.01364271,-0.00709798,0.00014712,-
 0.00928517,0.00682278,-0.00008517,0.01712919,0.00115719,0.00012285,0.2
 0728380,-0.31573959,0.00061708,-0.00115347,0.00027342,0.00050117,-0.00
 113575,0.00028220,-0.00051582,-0.11511569,-0.15072235,-0.00180963,-0.1
 1136562,0.46502432,-0.00012068,-0.00028312,-0.01109914,-0.00018140,0.0
 0003307,0.00731448,-0.00001297,-0.00000212,0.00093928,-0.00082167,0.00
 015781,0.00119364,0.00071446,0.00017057,0.00025445,-0.00073304,-0.0001
 7883,0.00023564,-0.00176604,-0.00091976,-0.00083767,0.00292134,0.00102
 239,0.00199931\\-0.00005808,-0.00000232,-0.00000657,0.00002999,0.00001
 406,0.00001025,0.00001066,-0.00002041,0.00000003,0.00002882,-0.0000333
 9,0.00000484,-0.00001424,0.00001324,0.00001315,-0.00002107,0.00001521,
 -0.00001468,0.00014068,0.00009549,-0.00000793,-0.00011676,-0.00008188,
 0.00000091\\\@


 There ain't no surer way to find out whether you
 like people or hate them than to travel with them.
                                     -- Mark Twain
 Job cpu time:  0 days  2 hours 22 minutes  8.1 seconds.
 File lengths (MBytes):  RWF=     80 Int=      0 D2E=      0 Chk=      7 Scr=      1
 Normal termination of Gaussian 03 at Sat Oct 22 02:39:46 2005.
