 Entering Gaussian System, Link 0=g03
 Input=TS_OH_falling_off3.gjf
 Output=TS_OH_falling_off3.log
 Initial command:
 /usr/local/g03/l1.exe /work/Gau-5174.inp -scrdir=/work/
 Entering Link 1 = /usr/local/g03/l1.exe PID=      5175.
  
 Copyright (c) 1988,1990,1992,1993,1995,1998,2003, Gaussian, Inc.
                  All Rights Reserved.
  
 This is the Gaussian(R) 03 program.  It is based on the
 the Gaussian(R) 98 system (copyright 1998, Gaussian, Inc.),
 the Gaussian(R) 94 system (copyright 1995, Gaussian, Inc.),
 the Gaussian 92(TM) system (copyright 1992, Gaussian, Inc.),
 the Gaussian 90(TM) system (copyright 1990, Gaussian, Inc.),
 the Gaussian 88(TM) system (copyright 1988, Gaussian, Inc.),
 the Gaussian 86(TM) system (copyright 1986, Carnegie Mellon
 University), and the Gaussian 82(TM) system (copyright 1983,
 Carnegie Mellon University). Gaussian is a federally registered
 trademark of Gaussian, Inc.
  
 This software contains proprietary and confidential information,
 including trade secrets, belonging to Gaussian, Inc.
  
 This software is provided under written license and may be
 used, copied, transmitted, or stored only in accord with that
 written license.
  
 The following legend is applicable only to US Government
 contracts under DFARS:
  
                    RESTRICTED RIGHTS LEGEND
  
 Use, duplication or disclosure by the US Government is subject
 to restrictions as set forth in subparagraph (c)(1)(ii) of the
 Rights in Technical Data and Computer Software clause at DFARS
 252.227-7013.
  
 Gaussian, Inc.
 Carnegie Office Park, Building 6, Pittsburgh, PA 15106 USA
  
 The following legend is applicable only to US Government
 contracts under FAR:
  
                    RESTRICTED RIGHTS LEGEND
  
 Use, reproduction and disclosure by the US Government is subject
 to restrictions as set forth in subparagraph (c) of the
 Commercial Computer Software - Restricted Rights clause at FAR
 52.227-19.
  
 Gaussian, Inc.
 Carnegie Office Park, Building 6, Pittsburgh, PA 15106 USA
  
  
 ---------------------------------------------------------------
 Warning -- This program may not be used in any manner that
 competes with the business of Gaussian, Inc. or will provide
 assistance to any competitor of Gaussian, Inc.  The licensee
 of this program is prohibited from giving any competitor of
 Gaussian, Inc. access to this program.  By using this program,
 the user acknowledges that Gaussian, Inc. is engaged in the
 business of creating and licensing software in the field of
 computational chemistry and represents and warrants to the
 licensee that it is not a competitor of Gaussian, Inc. and that
 it will not use this program in any manner prohibited above.
 ---------------------------------------------------------------
  

 Cite this work as:
 Gaussian 03, Revision B.05,
 M. J. Frisch, G. W. Trucks, H. B. Schlegel, G. E. Scuseria, 
 M. A. Robb, J. R. Cheeseman, J. A. Montgomery, Jr., T. Vreven, 
 K. N. Kudin, J. C. Burant, J. M. Millam, S. S. Iyengar, J. Tomasi, 
 V. Barone, B. Mennucci, M. Cossi, G. Scalmani, N. Rega, 
 G. A. Petersson, H. Nakatsuji, M. Hada, M. Ehara, K. Toyota, 
 R. Fukuda, J. Hasegawa, M. Ishida, T. Nakajima, Y. Honda, O. Kitao, 
 H. Nakai, M. Klene, X. Li, J. E. Knox, H. P. Hratchian, J. B. Cross, 
 C. Adamo, J. Jaramillo, R. Gomperts, R. E. Stratmann, O. Yazyev, 
 A. J. Austin, R. Cammi, C. Pomelli, J. W. Ochterski, P. Y. Ayala, 
 K. Morokuma, G. A. Voth, P. Salvador, J. J. Dannenberg, 
 V. G. Zakrzewski, S. Dapprich, A. D. Daniels, M. C. Strain, 
 O. Farkas, D. K. Malick, A. D. Rabuck, K. Raghavachari, 
 J. B. Foresman, J. V. Ortiz, Q. Cui, A. G. Baboul, S. Clifford, 
 J. Cioslowski, B. B. Stefanov, G. Liu, A. Liashenko, P. Piskorz, 
 I. Komaromi, R. L. Martin, D. J. Fox, T. Keith, M. A. Al-Laham, 
 C. Y. Peng, A. Nanayakkara, M. Challacombe, P. M. W. Gill, 
 B. Johnson, W. Chen, M. W. Wong, C. Gonzalez, and J. A. Pople, 
 Gaussian, Inc., Pittsburgh PA, 2003.
 
 **********************************************
 Gaussian 03:  x86-Linux-G03RevB.05 24-Oct-2003
                  25-Oct-2005 
 **********************************************
 %chk=TS_OH_falling_off3
 %mem=1000MB
 ----------------------------------------------------------------------
 # opt=(qst2,maxcycle=100) freq ub3lyp/6-311+g(3df,2p) scf=(tight,maxcy
 cle=1000)
 ----------------------------------------------------------------------
 1/5=1,6=100,14=-1,18=20,26=3,27=202,38=1/1,3;
 2/9=110,17=6,18=5,40=1/2;
 3/5=4,6=6,7=216,11=2,16=1,25=1,30=1,74=-5/1,2,3;
 4/7=2/1;
 5/5=2,7=1000,32=2,38=5/2;
 6/7=2,8=2,9=2,10=2,28=1/1;
 7//1,2,3,16;
 1/5=1,6=100,14=-1,18=20,27=202/3(1);
 99//99;
 2/9=110/2;
 3/5=4,6=6,7=216,11=2,16=1,25=1,30=1,74=-5/1,2,3;
 4/5=5,7=2,16=3/1;
 5/5=2,7=1000,32=2,38=5/2;
 7//1,2,3,16;
 1/5=1,6=100,14=-1,18=20,27=202/3(-5);
 2/9=110/2;
 6/7=2,8=2,9=2,10=2,19=2,28=1/1;
 99/9=1/99;
 ---------------
 acetyl peroxide
 ---------------
 Symbolic Z-matrix:
 Charge =  0 Multiplicity = 2
 C                     0.48305   0.13547  -0.00005 
 O                     0.2266    1.32484   0.00005 
 C                     1.77913  -0.47606   0.00004 
 H                    -1.54007   0.76387   0.00008 
 H                     2.28065  -0.71271  -0.92505 
 H                     2.23992  -0.69348   0.94984 
 O                    -0.50628  -0.80403  -0.00008 
 O                    -1.79084  -0.18787   0. 
 
 ------------
 OH falls off
 ------------
 Symbolic Z-matrix:
 Charge =  0 Multiplicity = 2
 C                     0.48305   0.13547  -0.00005 
 O                     0.2266    1.32484   0.00005 
 C                     1.77913  -0.47606   0.00004 
 H                    -2.1069    0.10552   0.00009 
 H                     2.28065  -0.71271  -0.92505 
 H                     2.23992  -0.69348   0.94984 
 O                     0.01062  -1.14447  -0.00004 
 O                    -2.01106  -0.87402   0.00001 
 
 Iteration  1 RMS(Cart)=  0.06979700 RMS(Int)=  0.13461534
 Iteration  2 RMS(Cart)=  0.04279225 RMS(Int)=  0.06125906
 Iteration  3 RMS(Cart)=  0.03559275 RMS(Int)=  0.00797105
 Iteration  4 RMS(Cart)=  0.00566414 RMS(Int)=  0.00275056
 Iteration  5 RMS(Cart)=  0.00001840 RMS(Int)=  0.00275048
 Iteration  6 RMS(Cart)=  0.00000000 RMS(Int)=  0.00275048

 GradGradGradGradGradGradGradGradGradGradGradGradGradGradGradGradGradGrad
 Berny optimization.
 Initialization pass.
                           ----------------------------
                           !    Initial Parameters    !
                           ! (Angstroms and Degrees)  !
 --------------------------                            --------------------------
 ! Name  Definition        TS        Reactant  Product Derivative Info.         !
 --------------------------------------------------------------------------------
 ! R1    R(1,2)             1.2188    1.2167    1.2167 estimate D2E/DX2         !
 ! R2    R(1,3)             1.4331    1.4331    1.4331 estimate D2E/DX2         !
 ! R3    R(1,7)             1.366     1.3643    1.3643 estimate D2E/DX2         !
 ! R4    R(2,4)             2.2422    1.8536    2.6329 estimate D2E/DX2         !
 ! R5    R(3,5)             1.0786    1.0786    1.0786 estimate D2E/DX2         !
 ! R6    R(3,6)             1.0778    1.0778    1.0778 estimate D2E/DX2         !
 ! R7    R(4,8)             0.9851    0.9842    0.9842 estimate D2E/DX2         !
 ! R8    R(7,8)             1.7333    1.4247    2.0397 estimate D2E/DX2         !
 ! R9    R(1,4)             2.3546    2.1185    2.5901 estimate D2E/DX2         !
 ! R10   R(4,7)             2.1657    1.878     2.4589 estimate D2E/DX2         !
 ! A1    A(2,1,3)         127.3746  127.4273  127.4273 estimate D2E/DX2         !
 ! A2    A(2,1,7)         134.5714  121.3523  147.5727 estimate D2E/DX2         !
 ! A3    A(3,1,7)          98.054   111.2204   85.0    estimate D2E/DX2         !
 ! A4    A(1,3,5)         120.9375  120.9375  120.9375 estimate D2E/DX2         !
 ! A5    A(1,3,6)         118.2143  118.2143  118.2143 estimate D2E/DX2         !
 ! A6    A(5,3,6)         120.8482  120.8482  120.8482 estimate D2E/DX2         !
 ! A7    A(1,7,8)         106.5612  110.8544  102.64   estimate D2E/DX2         !
 ! A8    A(4,8,7)         102.092   100.8643  103.2077 estimate D2E/DX2         !
 ! A9    A(3,1,4)         163.0403  171.9956  154.0779 estimate D2E/DX2         !
 ! A10   A(1,4,8)          86.3605   87.5062   85.0743 estimate D2E/DX2         !
 ! A11   A(2,4,7)          65.4879   74.2177   58.1421 estimate D2E/DX2         !
 ! A12   A(2,4,8)         116.9863  122.3777  112.0001 estimate D2E/DX2         !
 ! D1    D(2,1,3,5)       -90.0095  -90.009   -90.009  estimate D2E/DX2         !
 ! D2    D(2,1,3,6)        89.9911   89.9916   89.9916 estimate D2E/DX2         !
 ! D3    D(7,1,3,5)        90.0004   89.9994   89.9994 estimate D2E/DX2         !
 ! D4    D(7,1,3,6)       -89.999   -90.0     -90.0    estimate D2E/DX2         !
 ! D5    D(2,1,7,8)         0.0033    0.0007    0.0077 estimate D2E/DX2         !
 ! D6    D(3,1,7,8)       179.9923  179.9929  179.9953 estimate D2E/DX2         !
 ! D7    D(1,7,8,4)        -0.0041   -0.0012   -0.0046 estimate D2E/DX2         !
 ! D8    D(4,1,3,5)        90.0302   90.048    90.0133 estimate D2E/DX2         !
 ! D9    D(4,1,3,6)       -89.9692  -89.9514  -89.9861 estimate D2E/DX2         !
 ! D10   D(3,1,4,8)        -0.0357   -0.0527   -0.0185 estimate D2E/DX2         !
 --------------------------------------------------------------------------------
 Trust Radius=3.00D-01 FncErr=1.00D-07 GrdErr=1.00D-06
 Number of steps in this run= 100 maximum allowed number of steps= 100.
 Search for a saddle point of order  1.
 GradGradGradGradGradGradGradGradGradGradGradGradGradGradGradGradGradGrad

                          Input orientation:                          
 ---------------------------------------------------------------------
 Center     Atomic     Atomic              Coordinates (Angstroms)
 Number     Number      Type              X           Y           Z
 ---------------------------------------------------------------------
    1          6             0        0.533384    0.226413    0.000055
    2          8             0        0.373291    1.434656    0.000583
    3          6             0        1.776647   -0.486385    0.000055
    4          1             0       -1.762091    0.750763    0.000156
    5          1             0        2.257864   -0.761876   -0.925065
    6          1             0        2.218528   -0.740154    0.949824
    7          8             0       -0.305387   -0.851779   -0.000449
    8          8             0       -1.920063   -0.221604   -0.000320
 ---------------------------------------------------------------------
                    Distance matrix (angstroms):
                    1          2          3          4          5
     1  C    0.000000
     2  O    1.218804   0.000000
     3  C    1.433103   2.379035   0.000000
     4  H    2.354602   2.242223   3.748760   0.000000
     5  H    2.192349   3.038617   1.078570   4.393649   0.000000
     6  H    2.162412   3.005954   1.077831   4.355460   1.875428
     7  O    1.366028   2.385034   2.113854   2.165670   2.726399
     8  O    2.494017   2.828899   3.706180   0.985116   4.313018
                    6          7          8
     6  H    0.000000
     7  O    2.699190   0.000000
     8  O    4.277804   1.733292   0.000000
 Stoichiometry    C2H3O3(2)
 Framework group  C1[X(C2H3O3)]
 Deg. of freedom    18
 Full point group                 C1      NOp   1
 Largest Abelian subgroup         C1      NOp   1
 Largest concise Abelian subgroup C1      NOp   1
                         Standard orientation:                         
 ---------------------------------------------------------------------
 Center     Atomic     Atomic              Coordinates (Angstroms)
 Number     Number      Type              X           Y           Z
 ---------------------------------------------------------------------
    1          6             0        0.491514    0.204051   -0.000563
    2          8             0        0.349966    1.414608   -0.000035
    3          6             0        1.723701   -0.527726   -0.000563
    4          1             0       -1.795651    0.763538   -0.000461
    5          1             0        2.200637   -0.810563   -0.925683
    6          1             0        2.161639   -0.788241    0.949206
    7          8             0       -0.363691   -0.861152   -0.001066
    8          8             0       -1.968514   -0.206292   -0.000937
 ---------------------------------------------------------------------
 Rotational constants (GHZ):      9.7785774      4.2297650      3.0150183
 Standard basis: 6-311+G(3df,2p) (5D, 7F)
 There are   222 symmetry adapted basis functions of A   symmetry.
 Integral buffers will be    262144 words long.
 Raffenetti 2 integral format.
 Two-electron integral symmetry is turned on.
   222 basis functions,   323 primitive gaussians,   252 cartesian basis functions
    20 alpha electrons       19 beta electrons
       nuclear repulsion energy       165.7300773971 Hartrees.
 NAtoms=    8 NActive=    8 NUniq=    8 SFac= 1.00D+00 NAtFMM=   60 Big=F
 One-electron integrals computed using PRISM.
 NBasis=   222 RedAO= T  NBF=   222
 NBsUse=   222 1.00D-06 NBFU=   222
 Harris functional with IExCor=  402 diagonalized for initial guess.
 ExpMin= 4.38D-02 ExpMax= 8.59D+03 ExpMxC= 1.30D+03 IAcc=2 IRadAn=         4 AccDes= 0.00D+00
 HarFok:  IExCor= 402 AccDes= 0.00D+00 IRadAn=         4 IDoV=1
 ScaDFX=  1.000000  1.000000  1.000000  1.000000
 Initial guess orbital symmetries:
 Alpha Orbitals:
       Occupied  (A) (A) (A) (A) (A) (A) (A) (A) (A) (A) (A) (A)
                 (A) (A) (A) (A) (A) (A) (A) (A)
       Virtual   (A) (A) (A) (A) (A) (A) (A) (A) (A) (A) (A) (A)
                 (A) (A) (A) (A) (A) (A) (A) (A) (A) (A) (A) (A)
                 (A) (A) (A) (A) (A) (A) (A) (A) (A) (A) (A) (A)
                 (A) (A) (A) (A) (A) (A) (A) (A) (A) (A) (A) (A)
                 (A) (A) (A) (A) (A) (A) (A) (A) (A) (A) (A) (A)
                 (A) (A) (A) (A) (A) (A) (A) (A) (A) (A) (A) (A)
                 (A) (A) (A) (A) (A) (A) (A) (A) (A) (A) (A) (A)
                 (A) (A) (A) (A) (A) (A) (A) (A) (A) (A) (A) (A)
                 (A) (A) (A) (A) (A) (A) (A) (A) (A) (A) (A) (A)
                 (A) (A) (A) (A) (A) (A) (A) (A) (A) (A) (A) (A)
                 (A) (A) (A) (A) (A) (A) (A) (A) (A) (A) (A) (A)
                 (A) (A) (A) (A) (A) (A) (A) (A) (A) (A) (A) (A)
                 (A) (A) (A) (A) (A) (A) (A) (A) (A) (A) (A) (A)
                 (A) (A) (A) (A) (A) (A) (A) (A) (A) (A) (A) (A)
                 (A) (A) (A) (A) (A) (A) (A) (A) (A) (A) (A) (A)
                 (A) (A) (A) (A) (A) (A) (A) (A) (A) (A) (A) (A)
                 (A) (A) (A) (A) (A) (A) (A) (A) (A) (A)
 Beta  Orbitals:
       Occupied  (A) (A) (A) (A) (A) (A) (A) (A) (A) (A) (A) (A)
                 (A) (A) (A) (A) (A) (A) (A)
       Virtual   (A) (A) (A) (A) (A) (A) (A) (A) (A) (A) (A) (A)
                 (A) (A) (A) (A) (A) (A) (A) (A) (A) (A) (A) (A)
                 (A) (A) (A) (A) (A) (A) (A) (A) (A) (A) (A) (A)
                 (A) (A) (A) (A) (A) (A) (A) (A) (A) (A) (A) (A)
                 (A) (A) (A) (A) (A) (A) (A) (A) (A) (A) (A) (A)
                 (A) (A) (A) (A) (A) (A) (A) (A) (A) (A) (A) (A)
                 (A) (A) (A) (A) (A) (A) (A) (A) (A) (A) (A) (A)
                 (A) (A) (A) (A) (A) (A) (A) (A) (A) (A) (A) (A)
                 (A) (A) (A) (A) (A) (A) (A) (A) (A) (A) (A) (A)
                 (A) (A) (A) (A) (A) (A) (A) (A) (A) (A) (A) (A)
                 (A) (A) (A) (A) (A) (A) (A) (A) (A) (A) (A) (A)
                 (A) (A) (A) (A) (A) (A) (A) (A) (A) (A) (A) (A)
                 (A) (A) (A) (A) (A) (A) (A) (A) (A) (A) (A) (A)
                 (A) (A) (A) (A) (A) (A) (A) (A) (A) (A) (A) (A)
                 (A) (A) (A) (A) (A) (A) (A) (A) (A) (A) (A) (A)
                 (A) (A) (A) (A) (A) (A) (A) (A) (A) (A) (A) (A)
                 (A) (A) (A) (A) (A) (A) (A) (A) (A) (A) (A)
 The electronic state of the initial guess is 2-A.
 <S**2> of initial guess= 0.7500
 Requested convergence on RMS density matrix=1.00D-08 within1000 cycles.
 Requested convergence on MAX density matrix=1.00D-06.
 Requested convergence on             energy=1.00D-06.
 No special actions if energy rises.
 SCF Done:  E(UB+HF-LYP) =  -303.627899913     A.U. after   19 cycles
             Convg  =    0.5803D-08             -V/T =  2.0042
             S**2   =   0.8031
 Annihilation of the first spin contaminant:
 S**2 before annihilation     0.8031,   after     0.7504

 **********************************************************************

            Population analysis using the SCF density.

 **********************************************************************

 Orbital symmetries:
 Alpha Orbitals:
       Occupied  (A) (A) (A) (A) (A) (A) (A) (A) (A) (A) (A) (A)
                 (A) (A) (A) (A) (A) (A) (A) (A)
       Virtual   (A) (A) (A) (A) (A) (A) (A) (A) (A) (A) (A) (A)
                 (A) (A) (A) (A) (A) (A) (A) (A) (A) (A) (A) (A)
                 (A) (A) (A) (A) (A) (A) (A) (A) (A) (A) (A) (A)
                 (A) (A) (A) (A) (A) (A) (A) (A) (A) (A) (A) (A)
                 (A) (A) (A) (A) (A) (A) (A) (A) (A) (A) (A) (A)
                 (A) (A) (A) (A) (A) (A) (A) (A) (A) (A) (A) (A)
                 (A) (A) (A) (A) (A) (A) (A) (A) (A) (A) (A) (A)
                 (A) (A) (A) (A) (A) (A) (A) (A) (A) (A) (A) (A)
                 (A) (A) (A) (A) (A) (A) (A) (A) (A) (A) (A) (A)
                 (A) (A) (A) (A) (A) (A) (A) (A) (A) (A) (A) (A)
                 (A) (A) (A) (A) (A) (A) (A) (A) (A) (A) (A) (A)
                 (A) (A) (A) (A) (A) (A) (A) (A) (A) (A) (A) (A)
                 (A) (A) (A) (A) (A) (A) (A) (A) (A) (A) (A) (A)
                 (A) (A) (A) (A) (A) (A) (A) (A) (A) (A) (A) (A)
                 (A) (A) (A) (A) (A) (A) (A) (A) (A) (A) (A) (A)
                 (A) (A) (A) (A) (A) (A) (A) (A) (A) (A) (A) (A)
                 (A) (A) (A) (A) (A) (A) (A) (A) (A) (A)
 Beta  Orbitals:
       Occupied  (A) (A) (A) (A) (A) (A) (A) (A) (A) (A) (A) (A)
                 (A) (A) (A) (A) (A) (A) (A)
       Virtual   (A) (A) (A) (A) (A) (A) (A) (A) (A) (A) (A) (A)
                 (A) (A) (A) (A) (A) (A) (A) (A) (A) (A) (A) (A)
                 (A) (A) (A) (A) (A) (A) (A) (A) (A) (A) (A) (A)
                 (A) (A) (A) (A) (A) (A) (A) (A) (A) (A) (A) (A)
                 (A) (A) (A) (A) (A) (A) (A) (A) (A) (A) (A) (A)
                 (A) (A) (A) (A) (A) (A) (A) (A) (A) (A) (A) (A)
                 (A) (A) (A) (A) (A) (A) (A) (A) (A) (A) (A) (A)
                 (A) (A) (A) (A) (A) (A) (A) (A) (A) (A) (A) (A)
                 (A) (A) (A) (A) (A) (A) (A) (A) (A) (A) (A) (A)
                 (A) (A) (A) (A) (A) (A) (A) (A) (A) (A) (A) (A)
                 (A) (A) (A) (A) (A) (A) (A) (A) (A) (A) (A) (A)
                 (A) (A) (A) (A) (A) (A) (A) (A) (A) (A) (A) (A)
                 (A) (A) (A) (A) (A) (A) (A) (A) (A) (A) (A) (A)
                 (A) (A) (A) (A) (A) (A) (A) (A) (A) (A) (A) (A)
                 (A) (A) (A) (A) (A) (A) (A) (A) (A) (A) (A) (A)
                 (A) (A) (A) (A) (A) (A) (A) (A) (A) (A) (A) (A)
                 (A) (A) (A) (A) (A) (A) (A) (A) (A) (A) (A)
 The electronic state is 2-A.
 Alpha  occ. eigenvalues --  -19.24095 -19.19449 -19.16199 -10.34390 -10.25335
 Alpha  occ. eigenvalues --   -1.12530  -1.05950  -0.98360  -0.78776  -0.60068
 Alpha  occ. eigenvalues --   -0.53319  -0.52774  -0.51242  -0.44825  -0.44217
 Alpha  occ. eigenvalues --   -0.42348  -0.37438  -0.33818  -0.32039  -0.28222
 Alpha virt. eigenvalues --   -0.12890  -0.04001  -0.00747   0.02167   0.03713
 Alpha virt. eigenvalues --    0.05192   0.05497   0.08208   0.08477   0.11199
 Alpha virt. eigenvalues --    0.11800   0.15900   0.17113   0.17473   0.17992
 Alpha virt. eigenvalues --    0.18703   0.20258   0.21530   0.24149   0.24748
 Alpha virt. eigenvalues --    0.25832   0.26703   0.26893   0.28324   0.30739
 Alpha virt. eigenvalues --    0.30793   0.33617   0.34083   0.36264   0.37149
 Alpha virt. eigenvalues --    0.41315   0.44475   0.44738   0.47767   0.50731
 Alpha virt. eigenvalues --    0.54573   0.54763   0.57641   0.59291   0.62496
 Alpha virt. eigenvalues --    0.64183   0.65776   0.67090   0.70160   0.73518
 Alpha virt. eigenvalues --    0.74575   0.75489   0.80986   0.82428   0.88133
 Alpha virt. eigenvalues --    0.90558   0.91489   0.92158   0.95437   0.97884
 Alpha virt. eigenvalues --    0.98208   1.00000   1.00663   1.02103   1.04106
 Alpha virt. eigenvalues --    1.06355   1.07007   1.09875   1.13015   1.14622
 Alpha virt. eigenvalues --    1.16650   1.20915   1.22043   1.22498   1.24411
 Alpha virt. eigenvalues --    1.27487   1.27978   1.32811   1.33642   1.34563
 Alpha virt. eigenvalues --    1.38168   1.39659   1.46308   1.53051   1.60149
 Alpha virt. eigenvalues --    1.61770   1.65167   1.65494   1.67282   1.73676
 Alpha virt. eigenvalues --    1.80591   1.88630   1.93484   1.94802   2.09834
 Alpha virt. eigenvalues --    2.11558   2.23767   2.30619   2.31765   2.39980
 Alpha virt. eigenvalues --    2.57114   2.66612   2.67601   2.71500   2.77698
 Alpha virt. eigenvalues --    2.78136   2.85702   2.90795   2.93525   2.97649
 Alpha virt. eigenvalues --    3.02335   3.03708   3.12546   3.14546   3.15666
 Alpha virt. eigenvalues --    3.25494   3.28443   3.34018   3.36217   3.41209
 Alpha virt. eigenvalues --    3.45330   3.47868   3.48429   3.51695   3.52109
 Alpha virt. eigenvalues --    3.53734   3.60274   3.66034   3.72632   3.74906
 Alpha virt. eigenvalues --    3.92883   3.95615   3.97899   4.02241   4.08200
 Alpha virt. eigenvalues --    4.10348   4.14771   4.19083   4.25157   4.30253
 Alpha virt. eigenvalues --    4.38967   4.49481   4.61085   4.64856   4.73546
 Alpha virt. eigenvalues --    4.79204   4.91524   4.96171   4.96876   4.97256
 Alpha virt. eigenvalues --    5.02274   5.06415   5.09787   5.11342   5.16075
 Alpha virt. eigenvalues --    5.25835   5.30330   5.30568   5.36684   5.39105
 Alpha virt. eigenvalues --    5.42745   5.43796   5.44768   5.50551   5.51159
 Alpha virt. eigenvalues --    5.52290   5.56743   5.66768   5.68051   5.88242
 Alpha virt. eigenvalues --    5.93847   5.95658   6.27259   6.32196   6.66615
 Alpha virt. eigenvalues --    6.89793   6.98107   7.03196   7.18384   7.19827
 Alpha virt. eigenvalues --    7.28405   7.31089   7.49119   7.85357   7.89389
 Alpha virt. eigenvalues --    8.15068   8.25464  14.25002  14.27723  14.29317
 Alpha virt. eigenvalues --   14.32120  14.32549  14.32981  14.37288  14.37489
 Alpha virt. eigenvalues --   14.40665  14.54048  14.63181  14.77327  14.79187
 Alpha virt. eigenvalues --   14.86709  15.07565  24.45201  25.16728  49.92836
 Alpha virt. eigenvalues --   50.09484  50.39282
  Beta  occ. eigenvalues --  -19.24549 -19.18436 -19.16017 -10.34456 -10.24146
  Beta  occ. eigenvalues --   -1.12637  -1.05714  -0.96367  -0.76318  -0.59553
  Beta  occ. eigenvalues --   -0.52683  -0.52292  -0.51130  -0.44530  -0.44008
  Beta  occ. eigenvalues --   -0.40469  -0.37264  -0.32615  -0.31365
  Beta virt. eigenvalues --   -0.15596  -0.08876  -0.04085  -0.00463   0.02283
  Beta virt. eigenvalues --    0.03772   0.05555   0.06055   0.08212   0.08790
  Beta virt. eigenvalues --    0.11908   0.12038   0.16104   0.17435   0.17634
  Beta virt. eigenvalues --    0.18265   0.18895   0.20270   0.21739   0.24444
  Beta virt. eigenvalues --    0.25304   0.25967   0.26734   0.27000   0.28471
  Beta virt. eigenvalues --    0.31143   0.31730   0.33782   0.34959   0.36361
  Beta virt. eigenvalues --    0.37956   0.42369   0.44525   0.45523   0.48347
  Beta virt. eigenvalues --    0.52163   0.54914   0.55009   0.57923   0.59769
  Beta virt. eigenvalues --    0.62520   0.64824   0.66329   0.67389   0.70390
  Beta virt. eigenvalues --    0.74502   0.75054   0.76811   0.81201   0.82757
  Beta virt. eigenvalues --    0.88700   0.90946   0.91479   0.92538   0.96884
  Beta virt. eigenvalues --    0.98445   0.98879   1.00260   1.00727   1.02370
  Beta virt. eigenvalues --    1.04409   1.06599   1.07567   1.10185   1.13020
  Beta virt. eigenvalues --    1.14863   1.17069   1.20989   1.22216   1.22949
  Beta virt. eigenvalues --    1.24852   1.27431   1.28510   1.33640   1.34580
  Beta virt. eigenvalues --    1.34898   1.38630   1.40394   1.47192   1.53486
  Beta virt. eigenvalues --    1.60402   1.64477   1.65777   1.65976   1.67464
  Beta virt. eigenvalues --    1.74953   1.81693   1.90582   1.94103   1.95801
  Beta virt. eigenvalues --    2.10862   2.11990   2.24176   2.31336   2.32747
  Beta virt. eigenvalues --    2.41094   2.58497   2.67472   2.68217   2.72889
  Beta virt. eigenvalues --    2.78365   2.81095   2.85879   2.93330   2.96942
  Beta virt. eigenvalues --    2.97898   3.05042   3.05714   3.13626   3.15194
  Beta virt. eigenvalues --    3.15945   3.26852   3.28811   3.35695   3.37044
  Beta virt. eigenvalues --    3.43880   3.45274   3.48026   3.49343   3.52222
  Beta virt. eigenvalues --    3.53010   3.53839   3.60720   3.66601   3.73798
  Beta virt. eigenvalues --    3.74862   3.93152   3.95670   3.98328   4.02348
  Beta virt. eigenvalues --    4.08246   4.10306   4.15339   4.19440   4.25498
  Beta virt. eigenvalues --    4.30940   4.39361   4.50236   4.61515   4.65544
  Beta virt. eigenvalues --    4.74728   4.79813   4.91546   4.96692   4.98118
  Beta virt. eigenvalues --    4.98571   5.02578   5.07005   5.09771   5.11442
  Beta virt. eigenvalues --    5.17510   5.26023   5.30680   5.31049   5.37131
  Beta virt. eigenvalues --    5.39349   5.43365   5.44260   5.45007   5.51040
  Beta virt. eigenvalues --    5.51755   5.52613   5.57346   5.66855   5.67803
  Beta virt. eigenvalues --    5.88609   5.93792   5.96004   6.27430   6.32308
  Beta virt. eigenvalues --    6.66752   6.90365   7.03503   7.03778   7.18364
  Beta virt. eigenvalues --    7.24791   7.31122   7.33932   7.51356   7.86025
  Beta virt. eigenvalues --    7.90007   8.15484   8.25476  14.27316  14.28387
  Beta virt. eigenvalues --   14.28997  14.31986  14.33692  14.36258  14.38105
  Beta virt. eigenvalues --   14.40246  14.40558  14.52071  14.63429  14.78843
  Beta virt. eigenvalues --   14.79605  14.86328  15.07465  24.46299  25.16927
  Beta virt. eigenvalues --   49.93583  50.09367  50.39431
          Condensed to atoms (all electrons):
              1          2          3          4          5          6
     1  C    5.344927   0.107417  -0.397418  -0.028362  -0.067693  -0.066500
     2  O    0.107417   8.659096  -0.010892   0.011758  -0.000645  -0.001051
     3  C   -0.397418  -0.010892   5.930492   0.009944   0.449259   0.449359
     4  H   -0.028362   0.011758   0.009944   0.536550  -0.000021  -0.000024
     5  H   -0.067693  -0.000645   0.449259  -0.000021   0.439639  -0.017147
     6  H   -0.066500  -0.001051   0.449359  -0.000024  -0.017147   0.440632
     7  O    0.129127  -0.104734  -0.067761   0.010464  -0.003401  -0.003753
     8  O    0.010233  -0.011879  -0.009766   0.179581   0.000390   0.000381
              7          8
     1  C    0.129127   0.010233
     2  O   -0.104734  -0.011879
     3  C   -0.067761  -0.009766
     4  H    0.010464   0.179581
     5  H   -0.003401   0.000390
     6  H   -0.003753   0.000381
     7  O    8.286917   0.061279
     8  O    0.061279   8.105451
 Mulliken atomic charges:
              1
     1  C    0.968268
     2  O   -0.649071
     3  C   -0.353218
     4  H    0.280110
     5  H    0.199619
     6  H    0.198102
     7  O   -0.308139
     8  O   -0.335671
 Sum of Mulliken charges=   0.00000
 Atomic charges with hydrogens summed into heavy atoms:
              1
     1  C    0.968268
     2  O   -0.649071
     3  C    0.044503
     4  H    0.000000
     5  H    0.000000
     6  H    0.000000
     7  O   -0.308139
     8  O   -0.055561
 Sum of Mulliken charges=   0.00000
          Atomic-Atomic Spin Densities.
              1          2          3          4          5          6
     1  C   -0.032498  -0.005584  -0.025314   0.000683   0.005899   0.005153
     2  O   -0.005584   0.079454  -0.022006   0.001545  -0.000319  -0.000349
     3  C   -0.025314  -0.022006   0.915478   0.000566   0.000057   0.001195
     4  H    0.000683   0.001545   0.000566  -0.009201   0.000000   0.000001
     5  H    0.005899  -0.000319   0.000057   0.000000  -0.031523   0.003406
     6  H    0.005153  -0.000349   0.001195   0.000001   0.003406  -0.031933
     7  O    0.001407  -0.000335   0.002380   0.003117  -0.000303  -0.000338
     8  O    0.007391  -0.005096  -0.006121  -0.001555   0.000018   0.000015
              7          8
     1  C    0.001407   0.007391
     2  O   -0.000335  -0.005096
     3  C    0.002380  -0.006121
     4  H    0.003117  -0.001555
     5  H   -0.000303   0.000018
     6  H   -0.000338   0.000015
     7  O   -0.141435  -0.056074
     8  O   -0.056074   0.432777
 Mulliken atomic spin densities:
              1
     1  C   -0.042863
     2  O    0.047310
     3  C    0.866236
     4  H   -0.004845
     5  H   -0.022764
     6  H   -0.022850
     7  O   -0.191580
     8  O    0.371355
 Sum of Mulliken spin densities=   1.00000
 Electronic spatial extent (au):  <R**2>=   395.6097
 Charge=     0.0000 electrons
 Dipole moment (field-independent basis, Debye):
    X=     2.8311    Y=    -0.6235    Z=     0.0038  Tot=     2.8990
 Quadrupole moment (field-independent basis, Debye-Ang):
   XX=   -25.9861   YY=   -32.3534   ZZ=   -27.6635
   XY=    -5.8874   XZ=    -0.0290   YZ=     0.0161
 Traceless Quadrupole moment (field-independent basis, Debye-Ang):
   XX=     2.6816   YY=    -3.6858   ZZ=     1.0042
   XY=    -5.8874   XZ=    -0.0290   YZ=     0.0161
 Octapole moment (field-independent basis, Debye-Ang**2):
  XXX=     4.4266  YYY=    -2.9097  ZZZ=     0.0597  XYY=    -5.1578
  XXY=     1.8248  XXZ=    -0.1578  XZZ=     2.2972  YZZ=    -0.5074
  YYZ=    -0.0456  XYZ=     0.0789
 Hexadecapole moment (field-independent basis, Debye-Ang**3):
 XXXX=  -305.6655 YYYY=  -146.8546 ZZZZ=   -31.2922 XXXY=   -20.2041
 XXXZ=    -0.6331 YYYX=    -1.3954 YYYZ=     0.0291 ZZZX=     0.0231
 ZZZY=    -0.0448 XXYY=   -70.7107 XXZZ=   -53.9096 YYZZ=   -27.9186
 XXYZ=     0.2448 YYXZ=    -0.1336 ZZXY=    -2.4140
 N-N= 1.657300773971D+02 E-N=-1.045755670292D+03  KE= 3.023700696963D+02
                          Isotropic Fermi Contact Couplings
        Atom                 a.u.       MegaHertz       Gauss      10(-4) cm-1
     1  C(13)             -0.02211     -24.85715      -8.86965      -8.29145
     2  O(17)              0.01742     -10.56078      -3.76835      -3.52270
     3  C(13)              0.03956      44.47856      15.87106      14.83645
     4  H(1)              -0.00538     -24.03601      -8.57665      -8.01755
     5  H(1)              -0.01112     -49.68484     -17.72879     -16.57308
     6  H(1)              -0.01095     -48.95301     -17.46765     -16.32897
     7  O(17)              0.21234    -128.72062     -45.93072     -42.93658
     8  O(17)             -0.01954      11.84565       4.22682       3.95128
 --------------------------------------------------------
       Center         ----  Spin Dipole Couplings  ----
                      3XX-RR        3YY-RR        3ZZ-RR
 --------------------------------------------------------
     1   Atom        0.012694      0.005241     -0.017935
     2   Atom        0.205784     -0.100722     -0.105062
     3   Atom       -0.197416      0.687644     -0.490228
     4   Atom       -0.010427      0.059334     -0.048907
     5   Atom       -0.024246     -0.004499      0.028744
     6   Atom       -0.028142     -0.005699      0.033841
     7   Atom       -0.618005      0.219165      0.398841
     8   Atom        1.512018     -0.729009     -0.783009
 --------------------------------------------------------
                        XY            XZ            YZ
 --------------------------------------------------------
     1   Atom       -0.017908      0.000199     -0.000146
     2   Atom       -0.132641      0.000203     -0.000302
     3   Atom        0.629962     -0.000794     -0.000984
     4   Atom        0.013833      0.000022      0.000049
     5   Atom        0.011727     -0.046777      0.026975
     6   Atom        0.013953      0.044150     -0.025624
     7   Atom        0.466261      0.001980     -0.000708
     8   Atom       -0.404357      0.000903     -0.000116
 --------------------------------------------------------


 ---------------------------------------------------------------------------------
              Anisotropic Spin Dipole Couplings in Principal Axis System
 ---------------------------------------------------------------------------------

       Atom             a.u.   MegaHertz   Gauss  10(-4) cm-1        Axes

              Baa    -0.0179    -2.407    -0.859    -0.803 -0.0051  0.0023  1.0000
     1 C(13)  Bbb    -0.0093    -1.251    -0.446    -0.417  0.6310  0.7758  0.0014
              Bcc     0.0273     3.658     1.305     1.220  0.7758 -0.6310  0.0055
 
              Baa    -0.1502    10.865     3.877     3.624  0.3492  0.9370  0.0047
     2 O(17)  Bbb    -0.1051     7.602     2.713     2.536 -0.0024 -0.0041  1.0000
              Bcc     0.2552   -18.467    -6.590    -6.160  0.9370 -0.3492  0.0008
 
              Baa    -0.5247   -70.416   -25.126   -23.488  0.8873 -0.4611  0.0073
     3 C(13)  Bbb    -0.4902   -65.784   -23.473   -21.943 -0.0061  0.0041  1.0000
              Bcc     1.0150   136.200    48.600    45.431  0.4611  0.8874 -0.0008
 
              Baa    -0.0489   -26.095    -9.311    -8.704 -0.0004 -0.0004  1.0000
     4 H(1)   Bbb    -0.0131    -6.973    -2.488    -2.326  0.9822 -0.1877  0.0003
              Bcc     0.0620    33.068    11.799    11.030  0.1877  0.9822  0.0005
 
              Baa    -0.0618   -32.967   -11.763   -10.997  0.7618 -0.3970  0.5119
     5 H(1)   Bbb     0.0008     0.414     0.148     0.138  0.4819  0.8754 -0.0383
              Bcc     0.0610    32.553    11.616    10.858 -0.4329  0.2759  0.8582
 
              Baa    -0.0619   -33.046   -11.792   -11.023  0.7826 -0.4083 -0.4700
     6 H(1)   Bbb     0.0008     0.443     0.158     0.148  0.4801  0.8764  0.0381
              Bcc     0.0611    32.603    11.634    10.875  0.3963 -0.2555  0.8819
 
              Baa    -0.8260    59.770    21.327    19.937  0.9132 -0.4074 -0.0017
     7 O(17)  Bbb     0.3988   -28.860   -10.298    -9.627 -0.0007 -0.0059  1.0000
              Bcc     0.4272   -30.910   -11.029   -10.310  0.4074  0.9132  0.0056
 
              Baa    -0.7997    57.868    20.649    19.303  0.1723  0.9850 -0.0024
     8 O(17)  Bbb    -0.7830    56.658    20.217    18.899  0.0000  0.0025  1.0000
              Bcc     1.5827  -114.526   -40.866   -38.202  0.9850 -0.1723  0.0004
 

 ---------------------------------------------------------------------------------

 ***** Axes restored to original set *****
 -------------------------------------------------------------------
 Center     Atomic                   Forces (Hartrees/Bohr)
 Number     Number              X              Y              Z
 -------------------------------------------------------------------
    1          6          -0.009852253    0.004333262   -0.002537584
    2          8          -0.015571267   -0.036084225    0.000287843
    3          6           0.020409418   -0.007498214    0.002014141
    4          1           0.007036024   -0.009935608   -0.000003288
    5          1           0.000338644   -0.001004962    0.000004679
    6          1           0.002679626   -0.002294550    0.000026911
    7          8          -0.023148084    0.061586295    0.000133969
    8          8           0.018107892   -0.009101999    0.000073330
 -------------------------------------------------------------------
 Cartesian Forces:  Max     0.061586295 RMS     0.017133046

 GradGradGradGradGradGradGradGradGradGradGradGradGradGradGradGradGradGrad
 Berny optimization.
 Internal  Forces:  Max     0.026227815 RMS     0.011272355
 Search for a saddle point.
 Step number   1 out of a maximum of 100
 All quantities printed in internal units (Hartrees-Bohrs-Radians)
 Second derivative matrix not updated -- first step.
 LST/QST climbing along tangent vector
     Eigenvalues ---    0.08105   0.01367   0.01651   0.01651   0.01917
     Eigenvalues ---    0.07605   0.00390   0.14649   0.16000   0.16000
     Eigenvalues ---    0.18936   0.21711   0.36168   0.36258   0.40547
     Eigenvalues ---    0.45378   0.48096   0.897311000.000001000.00000
     Eigenvalues --- 1000.000001000.000001000.000001000.000001000.00000
     Eigenvalues --- 1000.000001000.000001000.000001000.000001000.00000
     Eigenvalues --- 1000.000001000.00000
 Eigenvectors required to have negative eigenvalues:
                          R1        R2        R3        R4        R5
         1             -0.00041   0.00000  -0.00030   0.59311   0.00000
                          R6        R7        R8        R9        R10
         1              0.00000  -0.00019   0.46765   0.35857   0.44250
                          A1        A2        A3        A4        A5
         1              0.00022   0.18389  -0.18411   0.00000   0.00000
                          A6        A7        A8        A9        A10
         1              0.00000  -0.05736   0.01632  -0.12579  -0.01728
                          A11       A12       D1        D2        D3
         1             -0.11175  -0.07258   0.00000   0.00000   0.00000
                          D4        D5        D6        D7        D8
         1              0.00000   0.00005   0.00002  -0.00002  -0.00024
                          D9        D10
         1             -0.00024   0.00024
 QST in optimization variable space.
 Eigenvectors 1 and   7 swapped, overlap=  1.0000
                        Tangent   TS vect  // Eig F  Eigenval
       1  R1           -0.00041  -0.00041  -0.02454   0.08105
       2  R2            0.00000   0.00000   0.00009   0.01367
       3  R3           -0.00030  -0.00030   0.00050   0.01651
       4  R4            0.59311   0.59311  -0.00001   0.01651
       5  R5            0.00000   0.00000   0.00015   0.01917
       6  R6            0.00000   0.00000   0.00557   0.07605
       7  R7           -0.00019  -0.00019   0.00007   0.00390
       8  R8            0.46765   0.46765   0.01509   0.14649
       9  R9            0.35857   0.35857  -0.00200   0.16000
      10  R10           0.44250   0.44250  -0.00114   0.16000
      11  A1            0.00022   0.00022   0.00184   0.18936
      12  A2            0.18389   0.18389   0.00228   0.21711
      13  A3           -0.18411  -0.18411   0.00020   0.36168
      14  A4            0.00000   0.00000   0.00083   0.36258
      15  A5            0.00000   0.00000   0.01285   0.40547
      16  A6            0.00000   0.00000   0.00694   0.45378
      17  A7           -0.05736  -0.05736  -0.01448   0.48096
      18  A8            0.01632   0.01632  -0.01302   0.89731
      19  A9           -0.12579  -0.12579   0.000001000.00000
      20  A10          -0.01728  -0.01728   0.000001000.00000
      21  A11          -0.11175  -0.11175   0.000001000.00000
      22  A12          -0.07258  -0.07258   0.000001000.00000
      23  D1            0.00000   0.00000   0.000001000.00000
      24  D2            0.00000   0.00000   0.000001000.00000
      25  D3            0.00000   0.00000   0.000001000.00000
      26  D4            0.00000   0.00000   0.000001000.00000
      27  D5            0.00005   0.00005   0.000001000.00000
      28  D6            0.00002   0.00002   0.000001000.00000
      29  D7           -0.00002  -0.00002   0.000001000.00000
      30  D8           -0.00024  -0.00024   0.000001000.00000
      31  D9           -0.00024  -0.00024   0.000001000.00000
      32  D10           0.00024   0.00024   0.000001000.00000
 RFO step:  Lambda0=8.790127016D-02 Lambda=-3.13435830D-03.
 Linear search not attempted -- option 19 set.
 Maximum step size (   0.300) exceeded in Quadratic search.
    -- Step size scaled by   0.084
 Iteration  1 RMS(Cart)=  0.03252040 RMS(Int)=  0.00058201
 Iteration  2 RMS(Cart)=  0.00056037 RMS(Int)=  0.00017203
 Iteration  3 RMS(Cart)=  0.00000019 RMS(Int)=  0.00017203
 Variable       Old X    -DE/DX   Delta X   Delta X   Delta X     New X
                                 (Linear)    (Quad)   (Total)
    R1        2.30321  -0.02623   0.00000  -0.00137  -0.00162   2.30158
    R2        2.70817   0.02570   0.00000   0.00263   0.00263   2.71080
    R3        2.58142  -0.02520   0.00000  -0.00221  -0.00244   2.57898
    R4        4.23719  -0.01146   0.00000   0.18115   0.18128   4.41847
    R5        2.03820   0.00040   0.00000   0.00005   0.00005   2.03825
    R6        2.03681   0.00166   0.00000   0.00019   0.00019   2.03700
    R7        1.86160  -0.00396   0.00000  -0.00064  -0.00071   1.86088
    R8        3.27545  -0.01545   0.00000   0.13748   0.13734   3.41278
    R9        4.44955   0.00921   0.00000   0.11286   0.11284   4.56239
   R10        4.09252  -0.02250   0.00000   0.12868   0.12899   4.22152
    A1        2.22311   0.00612   0.00000   0.00154   0.00160   2.22470
    A2        2.34871  -0.01662   0.00000   0.05151   0.05139   2.40011
    A3        1.71137   0.01050   0.00000  -0.05306  -0.05299   1.65838
    A4        2.11076  -0.00114   0.00000  -0.00029  -0.00029   2.11047
    A5        2.06323   0.00367   0.00000   0.00094   0.00094   2.06417
    A6        2.10920  -0.00253   0.00000  -0.00065  -0.00065   2.10855
    A7        1.85984   0.01851   0.00000  -0.01271  -0.01258   1.84726
    A8        1.78184  -0.00425   0.00000   0.00408   0.00407   1.78591
    A9        2.84559   0.00038   0.00000  -0.03872  -0.03873   2.80686
   A10        1.50728  -0.00413   0.00000  -0.00570  -0.00575   1.50153
   A11        1.14298  -0.01283   0.00000  -0.03531  -0.03455   1.10842
   A12        2.04180  -0.01070   0.00000  -0.02317  -0.02290   2.01890
    D1       -1.57096  -0.00058   0.00000  -0.00123  -0.00123  -1.57219
    D2        1.57064   0.00023   0.00000   0.00049   0.00050   1.57114
    D3        1.57080  -0.00035   0.00000  -0.00070  -0.00072   1.57009
    D4       -1.57078   0.00047   0.00000   0.00102   0.00101  -1.56977
    D5        0.00006   0.00019   0.00000   0.00034   0.00035   0.00041
    D6        3.14146  -0.00006   0.00000  -0.00026  -0.00026   3.14120
    D7       -0.00007   0.00012   0.00000   0.00059   0.00060   0.00053
    D8        1.57132  -0.00032   0.00000  -0.00079  -0.00078   1.57054
    D9       -1.57026   0.00050   0.00000   0.00094   0.00095  -1.56931
   D10       -0.00062   0.00006   0.00000   0.00054   0.00054  -0.00009
         Item               Value     Threshold  Converged?
 Maximum Force            0.026228     0.000450     NO 
 RMS     Force            0.011272     0.000300     NO 
 Maximum Displacement     0.102984     0.001800     NO 
 RMS     Displacement     0.032714     0.001200     NO 
 Predicted change in Energy= 1.035653D-02
 GradGradGradGradGradGradGradGradGradGradGradGradGradGradGradGradGradGrad

                          Input orientation:                          
 ---------------------------------------------------------------------
 Center     Atomic     Atomic              Coordinates (Angstroms)
 Number     Number      Type              X           Y           Z
 ---------------------------------------------------------------------
    1          6             0        0.546509    0.249528   -0.000013
    2          8             0        0.409386    1.459727    0.000817
    3          6             0        1.776089   -0.489330    0.000238
    4          1             0       -1.816588    0.744190   -0.000299
    5          1             0        2.251104   -0.775199   -0.924968
    6          1             0        2.212873   -0.753279    0.949705
    7          8             0       -0.256044   -0.854294   -0.000454
    8          8             0       -1.951156   -0.231310   -0.000187
 ---------------------------------------------------------------------
                    Distance matrix (angstroms):
                    1          2          3          4          5
     1  C    0.000000
     2  O    1.217944   0.000000
     3  C    1.434495   2.380483   0.000000
     4  H    2.414315   2.338152   3.798539   0.000000
     5  H    2.193456   3.040378   1.078594   4.439557   0.000000
     6  H    2.164337   3.008380   1.077932   4.402440   1.875191
     7  O    1.364739   2.407798   2.064646   2.233931   2.673344
     8  O    2.543528   2.903751   3.736165   0.984738   4.337052
                    6          7          8
     6  H    0.000000
     7  O    2.647368   0.000000
     8  O    4.302776   1.805967   0.000000
 Stoichiometry    C2H3O3(2)
 Framework group  C1[X(C2H3O3)]
 Deg. of freedom    18
 Full point group                 C1      NOp   1
 Largest Abelian subgroup         C1      NOp   1
 Largest concise Abelian subgroup C1      NOp   1
                         Standard orientation:                         
 ---------------------------------------------------------------------
 Center     Atomic     Atomic              Coordinates (Angstroms)
 Number     Number      Type              X           Y           Z
 ---------------------------------------------------------------------
    1          6             0        0.495418    0.218054   -0.001032
    2          8             0        0.387144    1.431176   -0.000761
    3          6             0        1.707060   -0.549865   -0.000919
    4          1             0       -1.855233    0.768833   -0.000582
    5          1             0        2.174737   -0.847423   -0.926178
    6          1             0        2.137845   -0.823664    0.948500
    7          8             0       -0.333185   -0.866349   -0.000576
    8          8             0       -2.012986   -0.203187    0.000083
 ---------------------------------------------------------------------
 Rotational constants (GHZ):      9.5314062      4.1491995      2.9505740
 Standard basis: 6-311+G(3df,2p) (5D, 7F)
 There are   222 symmetry adapted basis functions of A   symmetry.
 Integral buffers will be    262144 words long.
 Raffenetti 2 integral format.
 Two-electron integral symmetry is turned on.
   222 basis functions,   323 primitive gaussians,   252 cartesian basis functions
    20 alpha electrons       19 beta electrons
       nuclear repulsion energy       164.4104508976 Hartrees.
 NAtoms=    8 NActive=    8 NUniq=    8 SFac= 1.00D+00 NAtFMM=   60 Big=F
 One-electron integrals computed using PRISM.
 NBasis=   222 RedAO= T  NBF=   222
 NBsUse=   222 1.00D-06 NBFU=   222
 Initial guess read from the read-write file:
 Initial guess orbital symmetries:
 Alpha Orbitals:
       Occupied  (A) (A) (A) (A) (A) (A) (A) (A) (A) (A) (A) (A)
                 (A) (A) (A) (A) (A) (A) (A) (A)
       Virtual   (A) (A) (A) (A) (A) (A) (A) (A) (A) (A) (A) (A)
                 (A) (A) (A) (A) (A) (A) (A) (A) (A) (A) (A) (A)
                 (A) (A) (A) (A) (A) (A) (A) (A) (A) (A) (A) (A)
                 (A) (A) (A) (A) (A) (A) (A) (A) (A) (A) (A) (A)
                 (A) (A) (A) (A) (A) (A) (A) (A) (A) (A) (A) (A)
                 (A) (A) (A) (A) (A) (A) (A) (A) (A) (A) (A) (A)
                 (A) (A) (A) (A) (A) (A) (A) (A) (A) (A) (A) (A)
                 (A) (A) (A) (A) (A) (A) (A) (A) (A) (A) (A) (A)
                 (A) (A) (A) (A) (A) (A) (A) (A) (A) (A) (A) (A)
                 (A) (A) (A) (A) (A) (A) (A) (A) (A) (A) (A) (A)
                 (A) (A) (A) (A) (A) (A) (A) (A) (A) (A) (A) (A)
                 (A) (A) (A) (A) (A) (A) (A) (A) (A) (A) (A) (A)
                 (A) (A) (A) (A) (A) (A) (A) (A) (A) (A) (A) (A)
                 (A) (A) (A) (A) (A) (A) (A) (A) (A) (A) (A) (A)
                 (A) (A) (A) (A) (A) (A) (A) (A) (A) (A) (A) (A)
                 (A) (A) (A) (A) (A) (A) (A) (A) (A) (A) (A) (A)
                 (A) (A) (A) (A) (A) (A) (A) (A) (A) (A)
 Beta  Orbitals:
       Occupied  (A) (A) (A) (A) (A) (A) (A) (A) (A) (A) (A) (A)
                 (A) (A) (A) (A) (A) (A) (A)
       Virtual   (A) (A) (A) (A) (A) (A) (A) (A) (A) (A) (A) (A)
                 (A) (A) (A) (A) (A) (A) (A) (A) (A) (A) (A) (A)
                 (A) (A) (A) (A) (A) (A) (A) (A) (A) (A) (A) (A)
                 (A) (A) (A) (A) (A) (A) (A) (A) (A) (A) (A) (A)
                 (A) (A) (A) (A) (A) (A) (A) (A) (A) (A) (A) (A)
                 (A) (A) (A) (A) (A) (A) (A) (A) (A) (A) (A) (A)
                 (A) (A) (A) (A) (A) (A) (A) (A) (A) (A) (A) (A)
                 (A) (A) (A) (A) (A) (A) (A) (A) (A) (A) (A) (A)
                 (A) (A) (A) (A) (A) (A) (A) (A) (A) (A) (A) (A)
                 (A) (A) (A) (A) (A) (A) (A) (A) (A) (A) (A) (A)
                 (A) (A) (A) (A) (A) (A) (A) (A) (A) (A) (A) (A)
                 (A) (A) (A) (A) (A) (A) (A) (A) (A) (A) (A) (A)
                 (A) (A) (A) (A) (A) (A) (A) (A) (A) (A) (A) (A)
                 (A) (A) (A) (A) (A) (A) (A) (A) (A) (A) (A) (A)
                 (A) (A) (A) (A) (A) (A) (A) (A) (A) (A) (A) (A)
                 (A) (A) (A) (A) (A) (A) (A) (A) (A) (A) (A) (A)
                 (A) (A) (A) (A) (A) (A) (A) (A) (A) (A) (A)
 <S**2> of initial guess= 0.8041
 Harris functional with IExCor=  402 diagonalized for initial guess.
 ExpMin= 4.38D-02 ExpMax= 8.59D+03 ExpMxC= 1.30D+03 IAcc=2 IRadAn=         4 AccDes= 0.00D+00
 HarFok:  IExCor= 402 AccDes= 0.00D+00 IRadAn=         4 IDoV=1
 ScaDFX=  1.000000  1.000000  1.000000  1.000000
 Requested convergence on RMS density matrix=1.00D-08 within1000 cycles.
 Requested convergence on MAX density matrix=1.00D-06.
 Requested convergence on             energy=1.00D-06.
 No special actions if energy rises.
 SCF Done:  E(UB+HF-LYP) =  -303.622378278     A.U. after   18 cycles
             Convg  =    0.7319D-08             -V/T =  2.0041
             S**2   =   0.8469
 Annihilation of the first spin contaminant:
 S**2 before annihilation     0.8469,   after     0.7507
 ***** Axes restored to original set *****
 -------------------------------------------------------------------
 Center     Atomic                   Forces (Hartrees/Bohr)
 Number     Number              X              Y              Z
 -------------------------------------------------------------------
    1          6          -0.006152350    0.002292540   -0.002380294
    2          8          -0.019404836   -0.036411003    0.000243690
    3          6           0.013552366   -0.009301183    0.001989685
    4          1           0.006466131   -0.009864290    0.000003969
    5          1           0.000178972   -0.001655239   -0.000176866
    6          1           0.002392176   -0.002918771    0.000136292
    7          8          -0.002210048    0.060484675    0.000129147
    8          8           0.005177590   -0.002626728    0.000054377
 -------------------------------------------------------------------
 Cartesian Forces:  Max     0.060484675 RMS     0.015650431

 GradGradGradGradGradGradGradGradGradGradGradGradGradGradGradGradGradGrad
 Berny optimization.
 Internal  Forces:  Max     0.035292836 RMS     0.011372808
 Search for a saddle point.
 Step number   2 out of a maximum of 100
 All quantities printed in internal units (Hartrees-Bohrs-Radians)
 Update second derivatives using D2CorX and points  1  2
 LST/QST climbing along tangent vector
     Eigenvalues ---   -0.03067   0.00374   0.01380   0.01641   0.01651
     Eigenvalues ---    0.01930   0.06691   0.13574   0.16000   0.16000
     Eigenvalues ---    0.18188   0.21133   0.36167   0.36257   0.40497
     Eigenvalues ---    0.45557   0.47181   0.899381000.000001000.00000
     Eigenvalues --- 1000.000001000.000001000.000001000.000001000.00000
     Eigenvalues --- 1000.000001000.000001000.000001000.000001000.00000
     Eigenvalues --- 1000.000001000.00000
 Eigenvectors required to have negative eigenvalues:
                          R1        R2        R3        R4        R5
         1             -0.00145  -0.00109  -0.00074   0.59246  -0.00002
                          R6        R7        R8        R9        R10
         1             -0.00008  -0.00051   0.46791   0.35623   0.44611
                          A1        A2        A3        A4        A5
         1             -0.00005   0.18465  -0.18459   0.00012  -0.00039
                          A6        A7        A8        A9        A10
         1              0.00027  -0.05817   0.01641  -0.12542  -0.01742
                          A11       A12       D1        D2        D3
         1             -0.10633  -0.07048   0.00054  -0.00017   0.00025
                          D4        D5        D6        D7        D8
         1             -0.00046  -0.00003   0.00014  -0.00024   0.00006
                          D9        D10
         1             -0.00065   0.00005
 QST in optimization variable space.
                        Tangent   TS vect  // Eig F  Eigenval
       1  R1           -0.00145  -0.00145  -0.01563  -0.03067
       2  R2           -0.00109  -0.00109   0.00005   0.00374
       3  R3           -0.00074  -0.00074   0.00008   0.01380
       4  R4            0.59246   0.59246  -0.00092   0.01641
       5  R5           -0.00002  -0.00002  -0.00001   0.01651
       6  R6           -0.00008  -0.00008   0.00013   0.01930
       7  R7           -0.00051  -0.00051   0.00238   0.06691
       8  R8            0.46791   0.46791   0.00979   0.13574
       9  R9            0.35623   0.35623  -0.00225   0.16000
      10  R10           0.44611   0.44611  -0.00119   0.16000
      11  A1           -0.00005  -0.00005  -0.01064   0.18188
      12  A2            0.18465   0.18465   0.00606   0.21133
      13  A3           -0.18459  -0.18459   0.00037   0.36167
      14  A4            0.00012   0.00012   0.00092   0.36257
      15  A5           -0.00039  -0.00039   0.00973   0.40497
      16  A6            0.00027   0.00027   0.01098   0.45557
      17  A7           -0.05817  -0.05817  -0.01850   0.47181
      18  A8            0.01641   0.01641  -0.01251   0.89938
      19  A9           -0.12542  -0.12542   0.000001000.00000
      20  A10          -0.01742  -0.01742   0.000001000.00000
      21  A11          -0.10633  -0.10633   0.000001000.00000
      22  A12          -0.07048  -0.07048   0.000001000.00000
      23  D1            0.00054   0.00054   0.000001000.00000
      24  D2           -0.00017  -0.00017   0.000001000.00000
      25  D3            0.00025   0.00025   0.000001000.00000
      26  D4           -0.00046  -0.00046   0.000001000.00000
      27  D5           -0.00003  -0.00003   0.000001000.00000
      28  D6            0.00014   0.00014   0.000001000.00000
      29  D7           -0.00024  -0.00024   0.000001000.00000
      30  D8            0.00006   0.00006   0.000001000.00000
      31  D9           -0.00065  -0.00065   0.000001000.00000
      32  D10           0.00005   0.00005   0.000001000.00000
 RFO step:  Lambda0=6.560346404D-03 Lambda=-3.03100782D-03.
 Linear search not attempted -- option 19 set.
 Maximum step size (   0.300) exceeded in Quadratic search.
    -- Step size scaled by   0.685
 Iteration  1 RMS(Cart)=  0.03741497 RMS(Int)=  0.00096509
 Iteration  2 RMS(Cart)=  0.00091211 RMS(Int)=  0.00028662
 Iteration  3 RMS(Cart)=  0.00000055 RMS(Int)=  0.00028662
 Variable       Old X    -DE/DX   Delta X   Delta X   Delta X     New X
                                 (Linear)    (Quad)   (Total)
    R1        2.30158  -0.02609   0.00000  -0.01099  -0.01142   2.29016
    R2        2.71080   0.02097   0.00000   0.01725   0.01725   2.72805
    R3        2.57898  -0.03529   0.00000  -0.02536  -0.02580   2.55318
    R4        4.41847  -0.01286   0.00000   0.17525   0.17553   4.59400
    R5        2.03825   0.00067   0.00000   0.00062   0.00062   2.03887
    R6        2.03700   0.00181   0.00000   0.00167   0.00167   2.03866
    R7        1.86088  -0.00614   0.00000  -0.00527  -0.00527   1.85562
    R8        3.41278  -0.00425   0.00000   0.13053   0.13030   3.54308
    R9        4.56239   0.01040   0.00000   0.14207   0.14199   4.70439
   R10        4.22152  -0.01773   0.00000   0.10755   0.10801   4.32953
    A1        2.22470   0.01178   0.00000   0.02294   0.02306   2.24777
    A2        2.40011  -0.01547   0.00000   0.02148   0.02115   2.42126
    A3        1.65838   0.00369   0.00000  -0.04442  -0.04423   1.61415
    A4        2.11047  -0.00103   0.00000  -0.00214  -0.00224   2.10822
    A5        2.06417   0.00364   0.00000   0.00750   0.00740   2.07157
    A6        2.10855  -0.00261   0.00000  -0.00540  -0.00550   2.10305
    A7        1.84726   0.01798   0.00000   0.01384   0.01386   1.86112
    A8        1.78591  -0.00689   0.00000  -0.00478  -0.00457   1.78134
    A9        2.80686  -0.00435   0.00000  -0.04685  -0.04692   2.75993
   A10        1.50153  -0.00304   0.00000  -0.00664  -0.00660   1.49493
   A11        1.10842  -0.01498   0.00000  -0.04522  -0.04409   1.06433
   A12        2.01890  -0.00923   0.00000  -0.02743  -0.02682   1.99208
    D1       -1.57219  -0.00092   0.00000  -0.01574  -0.01573  -1.58792
    D2        1.57114   0.00062   0.00000   0.01082   0.01083   1.58197
    D3        1.57009  -0.00072   0.00000  -0.01232  -0.01234   1.55775
    D4       -1.56977   0.00082   0.00000   0.01423   0.01421  -1.55555
    D5        0.00041   0.00016   0.00000   0.00233   0.00235   0.00276
    D6        3.14120  -0.00005   0.00000  -0.00169  -0.00166   3.13954
    D7        0.00053   0.00009   0.00000   0.00375   0.00377   0.00430
    D8        1.57054  -0.00069   0.00000  -0.01223  -0.01222   1.55832
    D9       -1.56931   0.00085   0.00000   0.01432   0.01433  -1.55498
   D10       -0.00009   0.00004   0.00000   0.00280   0.00280   0.00272
         Item               Value     Threshold  Converged?
 Maximum Force            0.035293     0.000450     NO 
 RMS     Force            0.011373     0.000300     NO 
 Maximum Displacement     0.122888     0.001800     NO 
 RMS     Displacement     0.037779     0.001200     NO 
 Predicted change in Energy=-6.005023D-04
 GradGradGradGradGradGradGradGradGradGradGradGradGradGradGradGradGradGrad

                          Input orientation:                          
 ---------------------------------------------------------------------
 Center     Atomic     Atomic              Coordinates (Angstroms)
 Number     Number      Type              X           Y           Z
 ---------------------------------------------------------------------
    1          6             0        0.566401    0.279755   -0.000676
    2          8             0        0.430212    1.483978    0.001305
    3          6             0        1.786159   -0.492406    0.001724
    4          1             0       -1.881617    0.732063   -0.003395
    5          1             0        2.247354   -0.799379   -0.924097
    6          1             0        2.215059   -0.780277    0.948832
    7          8             0       -0.205063   -0.829422    0.000092
    8          8             0       -1.986332   -0.244279    0.001053
 ---------------------------------------------------------------------
                    Distance matrix (angstroms):
                    1          2          3          4          5
     1  C    0.000000
     2  O    1.211901   0.000000
     3  C    1.443622   2.396807   0.000000
     4  H    2.489455   2.431040   3.866772   0.000000
     5  H    2.200645   3.061388   1.078924   4.499045   0.000000
     6  H    2.177913   3.034854   1.078814   4.469526   1.873304
     7  O    1.351085   2.399041   2.019541   2.291087   2.620950
     8  O    2.605967   2.970952   3.780642   0.981951   4.368997
                    6          7          8
     6  H    0.000000
     7  O    2.599907   0.000000
     8  O    4.340192   1.874917   0.000000
 Stoichiometry    C2H3O3(2)
 Framework group  C1[X(C2H3O3)]
 Deg. of freedom    18
 Full point group                 C1      NOp   1
 Largest Abelian subgroup         C1      NOp   1
 Largest concise Abelian subgroup C1      NOp   1
                         Standard orientation:                         
 ---------------------------------------------------------------------
 Center     Atomic     Atomic              Coordinates (Angstroms)
 Number     Number      Type              X           Y           Z
 ---------------------------------------------------------------------
    1          6             0        0.505834    0.237100   -0.002134
    2          8             0        0.400694    1.444430   -0.000113
    3          6             0        1.705309   -0.566208   -0.000308
    4          1             0       -1.929729    0.752282   -0.003679
    5          1             0        2.158000   -0.884961   -0.926345
    6          1             0        2.127114   -0.865016    0.946599
    7          8             0       -0.293930   -0.851848   -0.000969
    8          8             0       -2.059544   -0.221040    0.000841
 ---------------------------------------------------------------------
 Rotational constants (GHZ):      9.3989521      4.0480287      2.8865692
 Standard basis: 6-311+G(3df,2p) (5D, 7F)
 There are   222 symmetry adapted basis functions of A   symmetry.
 Integral buffers will be    262144 words long.
 Raffenetti 2 integral format.
 Two-electron integral symmetry is turned on.
   222 basis functions,   323 primitive gaussians,   252 cartesian basis functions
    20 alpha electrons       19 beta electrons
       nuclear repulsion energy       163.4437006678 Hartrees.
 NAtoms=    8 NActive=    8 NUniq=    8 SFac= 1.00D+00 NAtFMM=   60 Big=F
 One-electron integrals computed using PRISM.
 NBasis=   222 RedAO= T  NBF=   222
 NBsUse=   222 1.00D-06 NBFU=   222
 Initial guess read from the read-write file:
 Initial guess orbital symmetries:
 Alpha Orbitals:
       Occupied  (A) (A) (A) (A) (A) (A) (A) (A) (A) (A) (A) (A)
                 (A) (A) (A) (A) (A) (A) (A) (A)
       Virtual   (A) (A) (A) (A) (A) (A) (A) (A) (A) (A) (A) (A)
                 (A) (A) (A) (A) (A) (A) (A) (A) (A) (A) (A) (A)
                 (A) (A) (A) (A) (A) (A) (A) (A) (A) (A) (A) (A)
                 (A) (A) (A) (A) (A) (A) (A) (A) (A) (A) (A) (A)
                 (A) (A) (A) (A) (A) (A) (A) (A) (A) (A) (A) (A)
                 (A) (A) (A) (A) (A) (A) (A) (A) (A) (A) (A) (A)
                 (A) (A) (A) (A) (A) (A) (A) (A) (A) (A) (A) (A)
                 (A) (A) (A) (A) (A) (A) (A) (A) (A) (A) (A) (A)
                 (A) (A) (A) (A) (A) (A) (A) (A) (A) (A) (A) (A)
                 (A) (A) (A) (A) (A) (A) (A) (A) (A) (A) (A) (A)
                 (A) (A) (A) (A) (A) (A) (A) (A) (A) (A) (A) (A)
                 (A) (A) (A) (A) (A) (A) (A) (A) (A) (A) (A) (A)
                 (A) (A) (A) (A) (A) (A) (A) (A) (A) (A) (A) (A)
                 (A) (A) (A) (A) (A) (A) (A) (A) (A) (A) (A) (A)
                 (A) (A) (A) (A) (A) (A) (A) (A) (A) (A) (A) (A)
                 (A) (A) (A) (A) (A) (A) (A) (A) (A) (A) (A) (A)
                 (A) (A) (A) (A) (A) (A) (A) (A) (A) (A)
 Beta  Orbitals:
       Occupied  (A) (A) (A) (A) (A) (A) (A) (A) (A) (A) (A) (A)
                 (A) (A) (A) (A) (A) (A) (A)
       Virtual   (A) (A) (A) (A) (A) (A) (A) (A) (A) (A) (A) (A)
                 (A) (A) (A) (A) (A) (A) (A) (A) (A) (A) (A) (A)
                 (A) (A) (A) (A) (A) (A) (A) (A) (A) (A) (A) (A)
                 (A) (A) (A) (A) (A) (A) (A) (A) (A) (A) (A) (A)
                 (A) (A) (A) (A) (A) (A) (A) (A) (A) (A) (A) (A)
                 (A) (A) (A) (A) (A) (A) (A) (A) (A) (A) (A) (A)
                 (A) (A) (A) (A) (A) (A) (A) (A) (A) (A) (A) (A)
                 (A) (A) (A) (A) (A) (A) (A) (A) (A) (A) (A) (A)
                 (A) (A) (A) (A) (A) (A) (A) (A) (A) (A) (A) (A)
                 (A) (A) (A) (A) (A) (A) (A) (A) (A) (A) (A) (A)
                 (A) (A) (A) (A) (A) (A) (A) (A) (A) (A) (A) (A)
                 (A) (A) (A) (A) (A) (A) (A) (A) (A) (A) (A) (A)
                 (A) (A) (A) (A) (A) (A) (A) (A) (A) (A) (A) (A)
                 (A) (A) (A) (A) (A) (A) (A) (A) (A) (A) (A) (A)
                 (A) (A) (A) (A) (A) (A) (A) (A) (A) (A) (A) (A)
                 (A) (A) (A) (A) (A) (A) (A) (A) (A) (A) (A) (A)
                 (A) (A) (A) (A) (A) (A) (A) (A) (A) (A) (A)
 <S**2> of initial guess= 0.8479
 Harris functional with IExCor=  402 diagonalized for initial guess.
 ExpMin= 4.38D-02 ExpMax= 8.59D+03 ExpMxC= 1.30D+03 IAcc=2 IRadAn=         4 AccDes= 0.00D+00
 HarFok:  IExCor= 402 AccDes= 0.00D+00 IRadAn=         4 IDoV=1
 ScaDFX=  1.000000  1.000000  1.000000  1.000000
 Requested convergence on RMS density matrix=1.00D-08 within1000 cycles.
 Requested convergence on MAX density matrix=1.00D-06.
 Requested convergence on             energy=1.00D-06.
 No special actions if energy rises.
 SCF Done:  E(UB+HF-LYP) =  -303.623075670     A.U. after   18 cycles
             Convg  =    0.3475D-08             -V/T =  2.0040
             S**2   =   0.8665
 Annihilation of the first spin contaminant:
 S**2 before annihilation     0.8665,   after     0.7508
 ***** Axes restored to original set *****
 -------------------------------------------------------------------
 Center     Atomic                   Forces (Hartrees/Bohr)
 Number     Number              X              Y              Z
 -------------------------------------------------------------------
    1          6          -0.001374750   -0.000627326   -0.001313231
    2          8          -0.019072603   -0.028364307   -0.000035944
    3          6           0.002927151   -0.009226060    0.001701159
    4          1           0.005728429   -0.007385986    0.000049407
    5          1          -0.000213076   -0.001868211   -0.000311212
    6          1           0.001352434   -0.002739028   -0.000021427
    7          8           0.014204108    0.049112682   -0.000077038
    8          8          -0.003551693    0.001098237    0.000008285
 -------------------------------------------------------------------
 Cartesian Forces:  Max     0.049112682 RMS     0.012904881

 GradGradGradGradGradGradGradGradGradGradGradGradGradGradGradGradGradGrad
 Berny optimization.
 Internal  Forces:  Max     0.037127044 RMS     0.009989779
 Search for a saddle point.
 Step number   3 out of a maximum of 100
 All quantities printed in internal units (Hartrees-Bohrs-Radians)
 Update second derivatives using D2CorX and points  1  2  3
 LST/QST climbing along tangent vector
     Eigenvalues ---   -0.01905   0.00360   0.01398   0.01605   0.01651
     Eigenvalues ---    0.01935   0.06726   0.13573   0.15987   0.16000
     Eigenvalues ---    0.17915   0.20924   0.36167   0.36258   0.40515
     Eigenvalues ---    0.45603   0.47030   0.901951000.000001000.00000
     Eigenvalues --- 1000.000001000.000001000.000001000.000001000.00000
     Eigenvalues --- 1000.000001000.000001000.000001000.000001000.00000
     Eigenvalues --- 1000.000001000.00000
 Eigenvectors required to have negative eigenvalues:
                          R1        R2        R3        R4        R5
         1              0.00737  -0.01928   0.02246   0.58469  -0.00065
                          R6        R7        R8        R9        R10
         1             -0.00180   0.00451   0.46977   0.31483   0.46808
                          A1        A2        A3        A4        A5
         1             -0.02261   0.21549  -0.19287   0.00257  -0.00797
                          A6        A7        A8        A9        A10
         1              0.00608  -0.08972   0.02617  -0.11399  -0.01531
                          A11       A12       D1        D2        D3
         1             -0.08528  -0.06006   0.01672  -0.01071   0.01232
                          D4        D5        D6        D7        D8
         1             -0.01510  -0.00207   0.00186  -0.00404   0.01229
                          D9        D10
         1             -0.01513  -0.00291
 QST in optimization variable space.
                        Tangent   TS vect  // Eig F  Eigenval
       1  R1            0.00737   0.00737  -0.00964  -0.01905
       2  R2           -0.01928  -0.01928   0.00003   0.00360
       3  R3            0.02246   0.02246   0.00005   0.01398
       4  R4            0.58469   0.58469  -0.00151   0.01605
       5  R5           -0.00065  -0.00065   0.00002   0.01651
       6  R6           -0.00180  -0.00180   0.00002   0.01935
       7  R7            0.00451   0.00451  -0.00111   0.06726
       8  R8            0.46977   0.46977   0.00582   0.13573
       9  R9            0.31483   0.31483   0.00239   0.15987
      10  R10           0.46808   0.46808   0.00029   0.16000
      11  A1           -0.02261  -0.02261  -0.01230   0.17915
      12  A2            0.21549   0.21549   0.00734   0.20924
      13  A3           -0.19287  -0.19287   0.00039   0.36167
      14  A4            0.00257   0.00257   0.00065   0.36258
      15  A5           -0.00797  -0.00797   0.00514   0.40515
      16  A6            0.00608   0.00608  -0.01347   0.45603
      17  A7           -0.08972  -0.08972  -0.01552   0.47030
      18  A8            0.02617   0.02617  -0.00880   0.90195
      19  A9           -0.11399  -0.11399   0.000001000.00000
      20  A10          -0.01531  -0.01531   0.000001000.00000
      21  A11          -0.08528  -0.08528   0.000001000.00000
      22  A12          -0.06006  -0.06006   0.000001000.00000
      23  D1            0.01672   0.01672   0.000001000.00000
      24  D2           -0.01071  -0.01071   0.000001000.00000
      25  D3            0.01232   0.01232   0.000001000.00000
      26  D4           -0.01510  -0.01510   0.000001000.00000
      27  D5           -0.00207  -0.00207   0.000001000.00000
      28  D6            0.00186   0.00186   0.000001000.00000
      29  D7           -0.00404  -0.00404   0.000001000.00000
      30  D8            0.01229   0.01229   0.000001000.00000
      31  D9           -0.01513  -0.01513   0.000001000.00000
      32  D10          -0.00291  -0.00291   0.000001000.00000
 RFO step:  Lambda0=4.025704334D-03 Lambda=-2.56458338D-03.
 Linear search not attempted -- option 19 set.
 Maximum step size (   0.300) exceeded in Quadratic search.
    -- Step size scaled by   0.686
 Iteration  1 RMS(Cart)=  0.03804291 RMS(Int)=  0.00091704
 Iteration  2 RMS(Cart)=  0.00102678 RMS(Int)=  0.00020372
 Iteration  3 RMS(Cart)=  0.00000050 RMS(Int)=  0.00020372
 Variable       Old X    -DE/DX   Delta X   Delta X   Delta X     New X
                                 (Linear)    (Quad)   (Total)
    R1        2.29016  -0.01944   0.00000  -0.00672  -0.00700   2.28316
    R2        2.72805   0.01084   0.00000   0.00322   0.00322   2.73127
    R3        2.55318  -0.03713   0.00000  -0.02349  -0.02378   2.52940
    R4        4.59400  -0.01158   0.00000   0.15310   0.15325   4.74724
    R5        2.03887   0.00071   0.00000   0.00054   0.00054   2.03942
    R6        2.03866   0.00125   0.00000   0.00069   0.00069   2.03936
    R7        1.85562  -0.00579   0.00000  -0.00285  -0.00288   1.85274
    R8        3.54308   0.00363   0.00000   0.15041   0.15021   3.69329
    R9        4.70439   0.00769   0.00000   0.11662   0.11664   4.82103
   R10        4.32953  -0.01059   0.00000   0.13093   0.13124   4.46076
    A1        2.24777   0.01560   0.00000   0.02689   0.02695   2.27472
    A2        2.42126  -0.01111   0.00000   0.03736   0.03722   2.45847
    A3        1.61415  -0.00449   0.00000  -0.06424  -0.06416   1.54999
    A4        2.10822  -0.00085   0.00000  -0.00152  -0.00171   2.10652
    A5        2.07157   0.00273   0.00000   0.00354   0.00335   2.07492
    A6        2.10305  -0.00193   0.00000  -0.00292  -0.00311   2.09993
    A7        1.86112   0.01410   0.00000  -0.00759  -0.00758   1.85354
    A8        1.78134  -0.00701   0.00000  -0.00264  -0.00260   1.77874
    A9        2.75993  -0.00916   0.00000  -0.05004  -0.05005   2.70988
   A10        1.49493  -0.00242   0.00000  -0.00398  -0.00394   1.49099
   A11        1.06433  -0.01335   0.00000  -0.03688  -0.03603   1.02830
   A12        1.99208  -0.00672   0.00000  -0.01983  -0.01946   1.97262
    D1       -1.58792  -0.00101   0.00000  -0.01837  -0.01837  -1.60629
    D2        1.58197   0.00090   0.00000   0.01784   0.01783   1.59980
    D3        1.55775  -0.00096   0.00000  -0.01879  -0.01879   1.53896
    D4       -1.55555   0.00095   0.00000   0.01742   0.01741  -1.53814
    D5        0.00276  -0.00006   0.00000  -0.00111  -0.00112   0.00164
    D6        3.13954   0.00000   0.00000  -0.00072  -0.00072   3.13882
    D7        0.00430  -0.00001   0.00000   0.00138   0.00137   0.00567
    D8        1.55832  -0.00095   0.00000  -0.01838  -0.01837   1.53995
    D9       -1.55498   0.00096   0.00000   0.01783   0.01783  -1.53715
   D10        0.00272  -0.00002   0.00000   0.00067   0.00068   0.00339
         Item               Value     Threshold  Converged?
 Maximum Force            0.037127     0.000450     NO 
 RMS     Force            0.009990     0.000300     NO 
 Maximum Displacement     0.129953     0.001800     NO 
 RMS     Displacement     0.038533     0.001200     NO 
 Predicted change in Energy=-2.462308D-03
 GradGradGradGradGradGradGradGradGradGradGradGradGradGradGradGradGradGrad

                          Input orientation:                          
 ---------------------------------------------------------------------
 Center     Atomic     Atomic              Coordinates (Angstroms)
 Number     Number      Type              X           Y           Z
 ---------------------------------------------------------------------
    1          6             0        0.586129    0.313490   -0.000455
    2          8             0        0.449887    1.513978    0.000956
    3          6             0        1.786366   -0.491738    0.002744
    4          1             0       -1.932783    0.717941   -0.004268
    5          1             0        2.228965   -0.824521   -0.923572
    6          1             0        2.200460   -0.806425    0.948328
    7          8             0       -0.136295   -0.813312   -0.000061
    8          8             0       -2.010557   -0.259380    0.001167
 ---------------------------------------------------------------------
                    Distance matrix (angstroms):
                    1          2          3          4          5
     1  C    0.000000
     2  O    1.208196   0.000000
     3  C    1.445327   2.410203   0.000000
     4  H    2.551179   2.512134   3.910939   0.000000
     5  H    2.201391   3.080333   1.079213   4.532599   0.000000
     6  H    2.181849   3.057171   1.079181   4.507197   1.872205
     7  O    1.338499   2.399978   1.949370   2.360535   2.539184
     8  O    2.659128   3.032916   3.804026   0.980426   4.375851
                    6          7          8
     6  H    0.000000
     7  O    2.521887   0.000000
     8  O    4.350751   1.954405   0.000000
 Stoichiometry    C2H3O3(2)
 Framework group  C1[X(C2H3O3)]
 Deg. of freedom    18
 Full point group                 C1      NOp   1
 Largest Abelian subgroup         C1      NOp   1
 Largest concise Abelian subgroup C1      NOp   1
                         Standard orientation:                         
 ---------------------------------------------------------------------
 Center     Atomic     Atomic              Coordinates (Angstroms)
 Number     Number      Type              X           Y           Z
 ---------------------------------------------------------------------
    1          6             0        0.513159    0.258594   -0.002008
    2          8             0        0.412828    1.462615   -0.000114
    3          6             0        1.688816   -0.582117    0.000117
    4          1             0       -1.992554    0.738088   -0.003984
    5          1             0        2.120662   -0.927649   -0.926607
    6          1             0        2.093958   -0.909357    0.945318
    7          8             0       -0.242592   -0.846132   -0.001493
    8          8             0       -2.099475   -0.236477    0.001184
 ---------------------------------------------------------------------
 Rotational constants (GHZ):      9.1831733      3.9916907      2.8374734
 Standard basis: 6-311+G(3df,2p) (5D, 7F)
 There are   222 symmetry adapted basis functions of A   symmetry.
 Integral buffers will be    262144 words long.
 Raffenetti 2 integral format.
 Two-electron integral symmetry is turned on.
   222 basis functions,   323 primitive gaussians,   252 cartesian basis functions
    20 alpha electrons       19 beta electrons
       nuclear repulsion energy       162.7830292923 Hartrees.
 NAtoms=    8 NActive=    8 NUniq=    8 SFac= 1.00D+00 NAtFMM=   60 Big=F
 One-electron integrals computed using PRISM.
 NBasis=   222 RedAO= T  NBF=   222
 NBsUse=   222 1.00D-06 NBFU=   222
 Initial guess read from the read-write file:
 Initial guess orbital symmetries:
 Alpha Orbitals:
       Occupied  (A) (A) (A) (A) (A) (A) (A) (A) (A) (A) (A) (A)
                 (A) (A) (A) (A) (A) (A) (A) (A)
       Virtual   (A) (A) (A) (A) (A) (A) (A) (A) (A) (A) (A) (A)
                 (A) (A) (A) (A) (A) (A) (A) (A) (A) (A) (A) (A)
                 (A) (A) (A) (A) (A) (A) (A) (A) (A) (A) (A) (A)
                 (A) (A) (A) (A) (A) (A) (A) (A) (A) (A) (A) (A)
                 (A) (A) (A) (A) (A) (A) (A) (A) (A) (A) (A) (A)
                 (A) (A) (A) (A) (A) (A) (A) (A) (A) (A) (A) (A)
                 (A) (A) (A) (A) (A) (A) (A) (A) (A) (A) (A) (A)
                 (A) (A) (A) (A) (A) (A) (A) (A) (A) (A) (A) (A)
                 (A) (A) (A) (A) (A) (A) (A) (A) (A) (A) (A) (A)
                 (A) (A) (A) (A) (A) (A) (A) (A) (A) (A) (A) (A)
                 (A) (A) (A) (A) (A) (A) (A) (A) (A) (A) (A) (A)
                 (A) (A) (A) (A) (A) (A) (A) (A) (A) (A) (A) (A)
                 (A) (A) (A) (A) (A) (A) (A) (A) (A) (A) (A) (A)
                 (A) (A) (A) (A) (A) (A) (A) (A) (A) (A) (A) (A)
                 (A) (A) (A) (A) (A) (A) (A) (A) (A) (A) (A) (A)
                 (A) (A) (A) (A) (A) (A) (A) (A) (A) (A) (A) (A)
                 (A) (A) (A) (A) (A) (A) (A) (A) (A) (A)
 Beta  Orbitals:
       Occupied  (A) (A) (A) (A) (A) (A) (A) (A) (A) (A) (A) (A)
                 (A) (A) (A) (A) (A) (A) (A)
       Virtual   (A) (A) (A) (A) (A) (A) (A) (A) (A) (A) (A) (A)
                 (A) (A) (A) (A) (A) (A) (A) (A) (A) (A) (A) (A)
                 (A) (A) (A) (A) (A) (A) (A) (A) (A) (A) (A) (A)
                 (A) (A) (A) (A) (A) (A) (A) (A) (A) (A) (A) (A)
                 (A) (A) (A) (A) (A) (A) (A) (A) (A) (A) (A) (A)
                 (A) (A) (A) (A) (A) (A) (A) (A) (A) (A) (A) (A)
                 (A) (A) (A) (A) (A) (A) (A) (A) (A) (A) (A) (A)
                 (A) (A) (A) (A) (A) (A) (A) (A) (A) (A) (A) (A)
                 (A) (A) (A) (A) (A) (A) (A) (A) (A) (A) (A) (A)
                 (A) (A) (A) (A) (A) (A) (A) (A) (A) (A) (A) (A)
                 (A) (A) (A) (A) (A) (A) (A) (A) (A) (A) (A) (A)
                 (A) (A) (A) (A) (A) (A) (A) (A) (A) (A) (A) (A)
                 (A) (A) (A) (A) (A) (A) (A) (A) (A) (A) (A) (A)
                 (A) (A) (A) (A) (A) (A) (A) (A) (A) (A) (A) (A)
                 (A) (A) (A) (A) (A) (A) (A) (A) (A) (A) (A) (A)
                 (A) (A) (A) (A) (A) (A) (A) (A) (A) (A) (A) (A)
                 (A) (A) (A) (A) (A) (A) (A) (A) (A) (A) (A)
 <S**2> of initial guess= 0.8664
 Harris functional with IExCor=  402 diagonalized for initial guess.
 ExpMin= 4.38D-02 ExpMax= 8.59D+03 ExpMxC= 1.30D+03 IAcc=2 IRadAn=         4 AccDes= 0.00D+00
 HarFok:  IExCor= 402 AccDes= 0.00D+00 IRadAn=         4 IDoV=1
 ScaDFX=  1.000000  1.000000  1.000000  1.000000
 Requested convergence on RMS density matrix=1.00D-08 within1000 cycles.
 Requested convergence on MAX density matrix=1.00D-06.
 Requested convergence on             energy=1.00D-06.
 No special actions if energy rises.
 SCF Done:  E(UB+HF-LYP) =  -303.625451639     A.U. after   15 cycles
[...]
 Frc consts  --     6.1581                 7.0923                 8.5315
 IR Inten    --    10.5564                 3.4787                46.6437
 Atom AN      X      Y      Z        X      Y      Z        X      Y      Z
   1   6     0.00   0.00   0.00     0.00   0.00   0.00     0.00   0.00   0.00
   2   8     0.00   0.00   0.00     0.00   0.00   0.00     0.00   0.00   0.00
   3   6     0.05  -0.04   0.00     0.00   0.00   0.10     0.00   0.00   0.00
   4   1     0.00   0.00   0.00     0.00   0.00   0.00     0.16   0.99   0.00
   5   1    -0.26   0.23   0.61     0.26  -0.24  -0.61     0.00   0.00   0.00
   6   1    -0.26   0.23  -0.62    -0.26   0.24  -0.61     0.00   0.00   0.00
   7   8     0.00   0.00   0.00     0.00   0.00   0.00     0.00   0.00   0.00
   8   8     0.00   0.00   0.00     0.00   0.00   0.00    -0.01  -0.06   0.00

 -------------------
 - Thermochemistry -
 -------------------
 Temperature   298.150 Kelvin.  Pressure   1.00000 Atm.
 Atom  1 has atomic number  6 and mass  12.00000
 Atom  2 has atomic number  8 and mass  15.99491
 Atom  3 has atomic number  6 and mass  12.00000
 Atom  4 has atomic number  1 and mass   1.00783
 Atom  5 has atomic number  1 and mass   1.00783
 Atom  6 has atomic number  1 and mass   1.00783
 Atom  7 has atomic number  8 and mass  15.99491
 Atom  8 has atomic number  8 and mass  15.99491
 Molecular mass:    75.00822 amu.
 Principal axes and moments of inertia in atomic units:
                           1         2         3
     EIGENVALUES --   190.82758 423.22924 601.51286
           X            0.99707  -0.07649   0.00000
           Y            0.07649   0.99707   0.00000
           Z            0.00000   0.00000   1.00000
 This molecule is an asymmetric top.
 Rotational symmetry number  1.
 Rotational temperatures (Kelvin)      0.45389     0.20465     0.14399
 Rotational constants (GHZ):           9.45744     4.26422     3.00034
    1 imaginary frequencies ignored.
 Zero-point vibrational energy     125558.7 (Joules/Mol)
                                   30.00924 (Kcal/Mol)
 Warning -- explicit consideration of   6 degrees of freedom as
           vibrations may cause significant error
 Vibrational temperatures:    225.58   270.04   426.55   460.57   544.08
          (Kelvin)            886.81   912.29  1179.20  1400.39  1451.03
                             1456.95  1701.88  2058.09  2676.05  4540.66
                             4713.91  5298.36
 
 Zero-point correction=                           0.047823 (Hartree/Particle)
 Thermal correction to Energy=                    0.053522
 Thermal correction to Enthalpy=                  0.054466
 Thermal correction to Gibbs Free Energy=         0.018540
 Sum of electronic and zero-point Energies=           -303.582907
 Sum of electronic and thermal Energies=              -303.577208
 Sum of electronic and thermal Enthalpies=            -303.576264
 Sum of electronic and thermal Free Energies=         -303.612190
 
                     E (Thermal)             CV                S
                      KCal/Mol        Cal/Mol-Kelvin    Cal/Mol-Kelvin
 Total                   33.586             18.593             75.613
 Electronic               0.000              0.000              1.377
 Translational            0.889              2.981             38.861
 Rotational               0.889              2.981             25.388
 Vibrational             31.808             12.632              9.987
 Vibration  1             0.620              1.895              2.588
 Vibration  2             0.632              1.857              2.251
 Vibration  3             0.690              1.680              1.437
 Vibration  4             0.706              1.635              1.310
 Vibration  5             0.748              1.517              1.047
 Vibration  6             0.976              0.997              0.422
                       Q            Log10(Q)             Ln(Q)
 Total Bot       0.296664D-08         -8.527734        -19.635834
 Total V=0       0.294556D+14         13.469169         31.013907
 Vib (Bot)       0.736275D-21        -21.132960        -48.660439
 Vib (Bot)  1    0.129072D+01          0.110831          0.255197
 Vib (Bot)  2    0.106726D+01          0.028270          0.065094
 Vib (Bot)  3    0.642738D+00         -0.191966         -0.442018
 Vib (Bot)  4    0.587194D+00         -0.231219         -0.532401
 Vib (Bot)  5    0.478742D+00         -0.319898         -0.736592
 Vib (Bot)  6    0.238174D+00         -0.623105         -1.434752
 Vib (V=0)       0.731043D+01          0.863943          1.989302
 Vib (V=0)  1    0.188418D+01          0.275122          0.633492
 Vib (V=0)  2    0.167858D+01          0.224941          0.517946
 Vib (V=0)  3    0.131432D+01          0.118700          0.273317
 Vib (V=0)  4    0.127123D+01          0.104224          0.239985
 Vib (V=0)  5    0.119224D+01          0.076363          0.175833
 Vib (V=0)  6    0.105383D+01          0.022770          0.052431
 Electronic      0.200000D+01          0.301030          0.693147
 Translational   0.255340D+08          7.407118         17.055521
 Rotational      0.789000D+05          4.897077         11.275937
 ***** Axes restored to original set *****
 -------------------------------------------------------------------
 Center     Atomic                   Forces (Hartrees/Bohr)
 Number     Number              X              Y              Z
 -------------------------------------------------------------------
    1          6          -0.000012470   -0.000018242   -0.000004346
    2          8           0.000008795    0.000005482    0.000000154
    3          6           0.000004531    0.000005471    0.000002099
    4          1           0.000002452    0.000013128    0.000000564
    5          1          -0.000003793   -0.000010096    0.000000320
    6          1          -0.000003436   -0.000014055   -0.000001538
    7          8           0.000002180    0.000006728    0.000004726
    8          8           0.000001743    0.000011583   -0.000001979
 -------------------------------------------------------------------
 Cartesian Forces:  Max     0.000018242 RMS     0.000007610

 GradGradGradGradGradGradGradGradGradGradGradGradGradGradGradGradGradGrad
 Berny optimization.
 Internal  Forces:  Max     0.000007012 RMS     0.000002729
 Search for a saddle point.
 Step number   1 out of a maximum of   2
 All quantities printed in internal units (Hartrees-Bohrs-Radians)
 Swaping is turned off.
 Second derivative matrix not updated -- analytic derivatives used.
     Eigenvalues ---   -0.10785   0.00167   0.00446   0.00484   0.01023
     Eigenvalues ---    0.01954   0.02410   0.04594   0.06716   0.09596
     Eigenvalues ---    0.10192   0.12365   0.30408   0.36158   0.36545
     Eigenvalues ---    0.36547   0.45333   0.789931000.000001000.00000
     Eigenvalues --- 1000.000001000.000001000.000001000.000001000.00000
     Eigenvalues --- 1000.000001000.000001000.000001000.000001000.00000
     Eigenvalues --- 1000.000001000.00000
 Eigenvectors required to have negative eigenvalues:
                          R1        R2        R3        R4        R5
         1             -0.01181  -0.08207  -0.11387   0.06174   0.00145
                          R6        R7        R8        R9        R10
         1              0.00145  -0.00297   0.63503   0.00447   0.31577
                          A1        A2        A3        A4        A5
         1              0.27624   0.15937  -0.43561   0.00622   0.00622
                          A6        A7        A8        A9        A10
         1             -0.01140  -0.12818  -0.15914  -0.30294   0.15465
                          A11       A12       D1        D2        D3
         1             -0.04335   0.14921   0.00369  -0.00369   0.00373
                          D4        D5        D6        D7        D8
         1             -0.00365   0.00000  -0.00002   0.00000   0.00372
                          D9        D10
         1             -0.00366   0.00004
 Angle between quadratic step and forces=  54.24 degrees.
 Linear search not attempted -- option 19 set.
 Iteration  1 RMS(Cart)=  0.00007756 RMS(Int)=  0.00000001
 Iteration  2 RMS(Cart)=  0.00000001 RMS(Int)=  0.00000000
 Variable       Old X    -DE/DX   Delta X   Delta X   Delta X     New X
                                 (Linear)    (Quad)   (Total)
    R1        2.26044   0.00001   0.00000   0.00001   0.00001   2.26045
    R2        2.76644   0.00000   0.00000   0.00001   0.00001   2.76646
    R3        2.46728  -0.00001   0.00000  -0.00005  -0.00005   2.46723
    R4        4.23348   0.00000   0.00000  -0.00023  -0.00023   4.23325
    R5        2.04033   0.00000   0.00000   0.00001   0.00001   2.04033
    R6        2.04033   0.00000   0.00000   0.00000   0.00000   2.04033
    R7        1.84231   0.00000   0.00000   0.00001   0.00001   1.84232
    R8        3.44124   0.00000   0.00000   0.00011   0.00011   3.44135
    R9        4.48759   0.00000   0.00000  -0.00010  -0.00010   4.48749
   R10        4.04391   0.00000   0.00000   0.00011   0.00011   4.04403
    A1        2.40121  -0.00001   0.00000  -0.00006  -0.00006   2.40114
    A2        2.31005   0.00000   0.00000   0.00002   0.00002   2.31007
    A3        1.57193   0.00000   0.00000   0.00004   0.00004   1.57197
    A4        2.09295   0.00000   0.00000  -0.00003  -0.00003   2.09293
    A5        2.09288   0.00000   0.00000   0.00005   0.00005   2.09293
    A6        2.08854   0.00000   0.00000  -0.00005  -0.00005   2.08850
    A7        1.92620   0.00000   0.00000  -0.00009  -0.00009   1.92611
    A8        1.65900   0.00000   0.00000   0.00001   0.00001   1.65901
    A9        2.68061   0.00001   0.00000   0.00013   0.00013   2.68074
   A10        1.58930   0.00000   0.00000   0.00000   0.00000   1.58930
   A11        1.09893   0.00000   0.00000   0.00002   0.00002   1.09895
   A12        2.11049   0.00000   0.00000   0.00002   0.00002   2.11051
    D1       -1.64232   0.00000   0.00000   0.00006   0.00006  -1.64226
    D2        1.64198   0.00000   0.00000   0.00027   0.00027   1.64226
    D3        1.49932   0.00000   0.00000   0.00002   0.00002   1.49934
    D4       -1.49957   0.00000   0.00000   0.00023   0.00023  -1.49934
    D5       -0.00010   0.00000   0.00000   0.00010   0.00010   0.00000
    D6        3.14146   0.00000   0.00000   0.00013   0.00013   3.14159
    D7        0.00016   0.00000   0.00000  -0.00016  -0.00016   0.00000
    D8        1.49943   0.00000   0.00000  -0.00010  -0.00010   1.49934
    D9       -1.49945   0.00000   0.00000   0.00012   0.00012  -1.49933
   D10        0.00000   0.00000   0.00000   0.00000   0.00000   0.00000
         Item               Value     Threshold  Converged?
 Maximum Force            0.000007     0.000450     YES
 RMS     Force            0.000003     0.000300     YES
 Maximum Displacement     0.000219     0.001800     YES
 RMS     Displacement     0.000078     0.001200     YES
 Predicted change in Energy=-2.619877D-09
 Optimization completed.
    -- Stationary point found.
                           ----------------------------
                           !   Optimized Parameters   !
                           ! (Angstroms and Degrees)  !
 --------------------------                            --------------------------
 ! Name  Definition              Value          Derivative Info.                !
 --------------------------------------------------------------------------------
 ! R1    R(1,2)                  1.1962         -DE/DX =    0.0                 !
 ! R2    R(1,3)                  1.4639         -DE/DX =    0.0                 !
 ! R3    R(1,7)                  1.3056         -DE/DX =    0.0                 !
 ! R4    R(2,4)                  2.2403         -DE/DX =    0.0                 !
 ! R5    R(3,5)                  1.0797         -DE/DX =    0.0                 !
 ! R6    R(3,6)                  1.0797         -DE/DX =    0.0                 !
 ! R7    R(4,8)                  0.9749         -DE/DX =    0.0                 !
 ! R8    R(7,8)                  1.821          -DE/DX =    0.0                 !
 ! R9    R(1,4)                  2.3747         -DE/DX =    0.0                 !
 ! R10   R(4,7)                  2.1399         -DE/DX =    0.0                 !
 ! A1    A(2,1,3)              137.5791         -DE/DX =    0.0                 !
 ! A2    A(2,1,7)              132.3562         -DE/DX =    0.0                 !
 ! A3    A(3,1,7)               90.0647         -DE/DX =    0.0                 !
 ! A4    A(1,3,5)              119.9174         -DE/DX =    0.0                 !
 ! A5    A(1,3,6)              119.913          -DE/DX =    0.0                 !
 ! A6    A(5,3,6)              119.6647         -DE/DX =    0.0                 !
 ! A7    A(1,7,8)              110.363          -DE/DX =    0.0                 !
 ! A8    A(4,8,7)               95.0539         -DE/DX =    0.0                 !
 ! A9    A(3,1,4)              153.5879         -DE/DX =    0.0                 !
 ! A10   A(1,4,8)               91.0599         -DE/DX =    0.0                 !
 ! A11   A(2,4,7)               62.9643         -DE/DX =    0.0                 !
 ! A12   A(2,4,8)              120.9223         -DE/DX =    0.0                 !
 ! D1    D(2,1,3,5)            -94.0978         -DE/DX =    0.0                 !
 ! D2    D(2,1,3,6)             94.0787         -DE/DX =    0.0                 !
 ! D3    D(7,1,3,5)             85.9045         -DE/DX =    0.0                 !
 ! D4    D(7,1,3,6)            -85.919          -DE/DX =    0.0                 !
 ! D5    D(2,1,7,8)             -0.0055         -DE/DX =    0.0                 !
 ! D6    D(3,1,7,8)            179.9924         -DE/DX =    0.0                 !
 ! D7    D(1,7,8,4)              0.0093         -DE/DX =    0.0                 !
 ! D8    D(4,1,3,5)             85.9112         -DE/DX =    0.0                 !
 ! D9    D(4,1,3,6)            -85.9123         -DE/DX =    0.0                 !
 ! D10   D(3,1,4,8)             -0.0001         -DE/DX =    0.0                 !
 --------------------------------------------------------------------------------
 GradGradGradGradGradGradGradGradGradGradGradGradGradGradGradGradGradGrad

 1\1\GINC-COMP05\Freq\UB3LYP\6-311+G(3df,2p)\C2H3O3(2)\CHMDRGL\26-Oct-2
 005\0\\#N GEOM=ALLCHECK GUESS=READ SCRF=CHECK GENCHK UB3LYP/6-311+G(3D
 F,2P) FREQ\\OH falls off\\0,2\C,0.5145645381,0.2885883369,0.0005908962
 \O,0.2480612803,1.4546832011,-0.0044290282\C,1.71804439,-0.5449007879,
 0.0075160282\H,-1.835319562,0.631101322,-0.0082001814\H,2.1257356568,-
 0.9097846089,-0.9232833862\H,2.1197029508,-0.9028598198,0.9436143417\O
 ,-0.2300174299,-0.7839158423,0.0019999473\O,-1.9937654272,-0.330840132
 3,-0.0051674592\\Version=x86-Linux-G03RevB.05\State=2-A\HF=-303.630729
 9\S2=0.837272\S2-1=0.\S2A=0.750568\RMSD=3.360e-10\RMSF=7.610e-06\Dipol
 e=1.4513208,-0.3667756,0.0059697\DipoleDeriv=0.3484725,0.0406509,0.000
 1463,0.1339868,1.8326595,-0.0052127,-0.0002157,-0.005468,0.2612251,-0.
 3018757,0.2131889,-0.0006398,-0.0082121,-1.1789617,0.0029814,0.0001485
 ,0.0036697,-0.3419605,-0.5829934,0.1617485,-0.0029919,-0.126066,-0.084
 1185,0.0005269,-0.0019931,0.0014538,0.1700967,0.2822118,-0.0305901,0.0
 000877,-0.183767,0.1599856,-0.0001033,0.0006509,0.0003863,0.2915893,0.
 0949881,0.0203744,-0.0089483,0.0287846,0.1235786,0.0042358,-0.0270561,
 -0.0026157,0.0606679,0.0947188,0.0204241,0.0090159,0.0289767,0.1235592
 ,-0.0045144,0.0270588,0.0022875,0.0608984,1.2121158,-0.5073684,0.00624
 24,-0.2546754,-0.7757361,0.0013843,0.0053146,0.0005489,-0.159874,-1.14
 76379,0.0815717,-0.0029124,0.3809724,-0.2009666,0.000702,-0.0039079,-0
 .0002625,-0.342643\Polar=80.0690358,-4.6962368,40.4371821,0.1826305,-0
 .0571749,28.6668979\PG=C01 [X(C2H3O3)]\NImag=1\\0.47794738,-0.15138320
 ,1.03130609,0.00142489,-0.00342639,0.20775624,-0.13112529,0.16101016,-
 0.00076143,0.11212492,0.16035919,-0.70250179,0.00276107,-0.16098647,0.
 83328439,-0.00075882,0.00276226,-0.07366746,0.00083249,-0.00337648,0.0
 3246462,-0.14921705,0.12762399,-0.00066499,-0.00877032,0.02145065,-0.0
 0017306,0.32945806,0.10239237,-0.09199648,0.00034239,0.02897743,-0.028
 61454,0.00027174,-0.23200725,0.26651011,-0.00057726,0.00042911,-0.0881
 8876,-0.00019728,0.00024549,0.02088295,-0.00007828,0.00055625,0.616666
 08,-0.00737132,0.00847066,-0.00006498,0.00522838,-0.00354465,0.0000411
 7,-0.00147525,-0.00119953,-0.00000068,0.04597854,-0.00186234,0.0113800
 0,-0.00003413,0.00371041,-0.00588951,0.00001996,-0.00019607,-0.0017564
 1,0.00000576,0.07017785,0.47513209,-0.00002802,-0.00000108,0.00339699,
 0.00001541,-0.00000330,-0.00362425,-0.00000362,0.00000284,0.00003926,-
 0.00012590,-0.00151014,0.00375506,-0.00707900,0.00808095,0.01428735,-0
 .00138850,0.00107968,-0.00071834,-0.08097112,0.04571391,0.09539753,0.0
 0031353,0.00014449,0.00018247,0.07972326,-0.00188079,0.00081220,-0.021
 38630,0.00240710,-0.00193024,0.00324750,0.05588788,-0.07106867,-0.0915
 8770,0.00007193,-0.00004986,0.00021692,-0.05622090,0.06151821,-0.00191
 319,-0.00018781,0.00669157,-0.00054241,0.00176512,-0.00112283,0.094802
 47,-0.08682453,-0.27834140,0.00001129,-0.00012059,0.00001473,-0.101616
 75,0.09396990,0.28405443,-0.00700278,0.00797539,-0.01443729,-0.0013956
 2,0.00109563,0.00070927,-0.07974988,0.04445037,-0.09444147,0.00031451,
 0.00014224,-0.00018161,0.01003200,-0.00204343,0.00989525,0.07841646,-0
 .00200514,0.00097014,0.02141790,0.00243107,-0.00196576,-0.00322645,0.0
 5459413,-0.06975783,0.09039104,0.00007303,-0.00005051,-0.00021601,-0.0
 0205528,0.00751255,-0.00938977,-0.05486799,0.06013559,0.00183965,0.000
 28064,0.00645080,0.00052207,-0.00175079,-0.00107835,-0.09392157,0.0855
 6325,-0.28087392,-0.00000993,0.00012200,0.00001420,-0.00973847,0.00923
 341,-0.01185629,0.10069332,-0.09266264,0.28674142,-0.13885068,-0.16656
 698,0.00035722,0.02282626,-0.02784548,0.00009115,0.05348558,0.02810043
 ,0.00005418,-0.00078553,-0.00010457,0.00000041,0.00026617,0.00384266,0
 .00056316,0.00029708,0.00389077,-0.00059527,-0.06051655,-0.10528184,-0
 .24874242,0.00032108,-0.03057142,-0.09499843,0.00033144,-0.04169983,-0
 .00869773,-0.00008086,0.01628216,-0.00606365,0.00006867,0.00362297,0.0
 0280918,0.00044811,0.00360428,0.00275901,-0.00043983,0.17795808,0.3783
 1423,0.00013067,0.00012616,-0.06236221,0.00009955,0.00033990,0.0257524
 1,0.00029985,0.00014499,0.00583805,-0.00005879,0.00001778,-0.00093764,
 0.00313329,0.00655513,0.00076052,-0.00316319,-0.00654608,0.00078870,-0
 .00094673,-0.00064274,0.03689435,-0.03730126,0.00478904,-0.00014077,0.
 00250016,0.00839144,-0.00002385,-0.06276001,-0.01642773,-0.00015675,-0
 .04220286,-0.07201202,0.00014086,-0.00089632,-0.00206445,-0.00119983,-
 0.00091177,-0.00206059,0.00121020,0.12327767,-0.02391440,0.00050534,0.
 01829438,-0.00033825,-0.00122773,0.00000439,-0.00697828,0.00261588,-0.
 00002996,0.01434649,0.00538154,0.00004091,-0.09033146,-0.47270215,0.00
 144210,-0.00036582,0.00039663,0.00033957,-0.00035650,0.00039681,-0.000
 34604,-0.01927491,-0.02538019,0.00000487,0.10329872,0.49051921,-0.0001
 1792,0.00001712,-0.00007718,0.00003159,0.00001901,0.00039292,-0.000260
 80,-0.00005694,0.00397774,0.00020782,0.00149937,-0.00265836,-0.0009270
 9,-0.00024886,-0.00020074,0.00092573,0.00023201,-0.00018656,0.00047587
 ,-0.00000587,-0.00673418,-0.00033520,-0.00145584,0.00548635\\0.0000124
 7,0.00001824,0.00000435,-0.00000879,-0.00000548,-0.00000015,-0.0000045
 3,-0.00000547,-0.00000210,-0.00000245,-0.00001313,-0.00000056,0.000003
 79,0.00001010,-0.00000032,0.00000344,0.00001405,0.00000154,-0.00000218
 ,-0.00000673,-0.00000473,-0.00000174,-0.00001158,0.00000198\\\@


 EDUCATION IS NOT TRAINING BUT RATHER THE PROCESS THAT EQUIPS YOU TO
 ENTERTAIN YOURSELF, A FRIEND, OR AN IDEA.  -- WALLACE STERLING
 Job cpu time:  0 days  2 hours 18 minutes 16.9 seconds.
 File lengths (MBytes):  RWF=     80 Int=      0 D2E=      0 Chk=      7 Scr=      1
 Normal termination of Gaussian 03 at Wed Oct 26 03:31:48 2005.
